
Linearized model: Predictions were generated on 03-Jul-2025 at 08:26:12 using OpenFAST, compiled on Jun 19 2025 at 03:54:01 as a 64-bit application using single precision at commit v4.1.0
 linked with  NWTC Subroutine Library; ElastoDyn; InflowWind; AeroDyn; ServoDyn

Description from the FAST input file: NREL                   MW          - Baseline Wind Turbine (Onshore), Linearization with AeroDyn + ED

Simulation information:
   Simulation time:                     1.0000 s
   Rotor Speed:                         0.2716 rad/s
   Azimuth:                             0.2656 rad
   Wind Speed:                          4.0000 m/s
   Number of continuous states:       260
   Number of discrete states:           0
   Number of constraint states:         0
   Number of inputs:                   69
   Number of outputs:                  39
   Jacobians included in this file?    No

Order of continuous states:
   Row/Column Operating Point                                                   Rotating Frame? Derivative Order Description
   ---------- ---------------                                                   --------------- ---------------- -----------
          1    1.692415773869E-002                                                     F               2         ED 1st tower fore-aft bending mode DOF (internal DOF index = DOF_TFA1), m
          2    6.808777106926E-005                                                     F               2         ED 1st tower side-to-side bending mode DOF (internal DOF index = DOF_TSS1), m
          3   -2.676083386177E-005                                                     F               2         ED 2nd tower fore-aft bending mode DOF (internal DOF index = DOF_TFA2), m
          4    1.482822699472E-005                                                     F               2         ED 2nd tower side-to-side bending mode DOF (internal DOF index = DOF_TSS2), m
          5    4.502451702137E-005                                                     F               2         ED Nacelle yaw DOF (internal DOF index = DOF_Yaw), rad
          6    4.977953910828E+000                                                     F               2         ED Variable speed generator DOF (internal DOF index = DOF_GeAz), rad
          7    6.001662768540E-005                                                     F               2         ED Drivetrain rotational-flexibility DOF (internal DOF index = DOF_DrTr), rad
          8    6.758059859276E-001                                                     T               2         ED 1st flapwise bending-mode DOF of blade 1 (internal DOF index = DOF_BF(1,1)), m
          9    7.654477953911E-001                                                     T               2         ED 1st flapwise bending-mode DOF of blade 2 (internal DOF index = DOF_BF(2,1)), m
         10    5.207237601280E-001                                                     T               2         ED 1st flapwise bending-mode DOF of blade 3 (internal DOF index = DOF_BF(3,1)), m
         11   -7.671986520290E-002                                                     T               2         ED 1st edgewise bending-mode DOF of blade 1 (internal DOF index = DOF_BE(1,1)), m
         12    3.862908855081E-002                                                     T               2         ED 1st edgewise bending-mode DOF of blade 2 (internal DOF index = DOF_BE(2,1)), m
         13    1.303636133671E-001                                                     T               2         ED 1st edgewise bending-mode DOF of blade 3 (internal DOF index = DOF_BE(3,1)), m
         14    6.595625542104E-003                                                     T               2         ED 2nd flapwise bending-mode DOF of blade 1 (internal DOF index = DOF_BF(1,2)), m
         15    1.238682959229E-002                                                     T               2         ED 2nd flapwise bending-mode DOF of blade 2 (internal DOF index = DOF_BF(2,2)), m
         16    2.951955422759E-002                                                     T               2         ED 2nd flapwise bending-mode DOF of blade 3 (internal DOF index = DOF_BF(3,2)), m
         17    6.924274563789E-002                                                     F               2         ED First time derivative of 1st tower fore-aft bending mode DOF (internal DOF index = DOF_TFA1), m/s
         18    8.331627584994E-003                                                     F               2         ED First time derivative of 1st tower side-to-side bending mode DOF (internal DOF index = DOF_TSS1), m/s
         19    1.562743418617E-004                                                     F               2         ED First time derivative of 2nd tower fore-aft bending mode DOF (internal DOF index = DOF_TFA2), m/s
         20   -9.307498839917E-005                                                     F               2         ED First time derivative of 2nd tower side-to-side bending mode DOF (internal DOF index = DOF_TSS2), m/s
         21   -4.865730297752E-004                                                     F               2         ED First time derivative of Nacelle yaw DOF (internal DOF index = DOF_Yaw), rad/s
         22    2.719675004482E-001                                                     F               2         ED First time derivative of Variable speed generator DOF (internal DOF index = DOF_GeAz), rad/s
         23   -3.628779668361E-004                                                     F               2         ED First time derivative of Drivetrain rotational-flexibility DOF (internal DOF index = DOF_DrTr), rad/s
         24   -1.323331952095E+000                                                     T               2         ED First time derivative of 1st flapwise bending-mode DOF of blade 1 (internal DOF index = DOF_BF(1,1)), m/s
         25   -2.058017969131E+000                                                     T               2         ED First time derivative of 1st flapwise bending-mode DOF of blade 2 (internal DOF index = DOF_BF(2,1)), m/s
         26   -8.278152942657E-001                                                     T               2         ED First time derivative of 1st flapwise bending-mode DOF of blade 3 (internal DOF index = DOF_BF(3,1)), m/s
         27   -3.185542672873E-002                                                     T               2         ED First time derivative of 1st edgewise bending-mode DOF of blade 1 (internal DOF index = DOF_BE(1,1)), m/s
         28   -1.298151612282E+000                                                     T               2         ED First time derivative of 1st edgewise bending-mode DOF of blade 2 (internal DOF index = DOF_BE(2,1)), m/s
         29    1.171214818954E+000                                                     T               2         ED First time derivative of 1st edgewise bending-mode DOF of blade 3 (internal DOF index = DOF_BE(3,1)), m/s
         30   -6.429111957550E-002                                                     T               2         ED First time derivative of 2nd flapwise bending-mode DOF of blade 1 (internal DOF index = DOF_BF(1,2)), m/s
         31   -1.460133492947E-001                                                     T               2         ED First time derivative of 2nd flapwise bending-mode DOF of blade 2 (internal DOF index = DOF_BF(2,2)), m/s
         32    6.591866910458E-002                                                     T               2         ED First time derivative of 2nd flapwise bending-mode DOF of blade 3 (internal DOF index = DOF_BF(3,2)), m/s
         33   -4.002723693848E+000                                                     T               2         AD vind (axial) at blade 1, node 1, m/s
         34    0.000000000000E+000                                                     T               2         AD vind (tangential) at blade 1, node 1, m/s
         35    0.000000000000E+000                                                     T               2         AD vind (axial) at blade 1, node 2, m/s
         36    0.000000000000E+000                                                     T               2         AD vind (tangential) at blade 1, node 2, m/s
         37    0.000000000000E+000                                                     T               2         AD vind (axial) at blade 1, node 3, m/s
         38    0.000000000000E+000                                                     T               2         AD vind (tangential) at blade 1, node 3, m/s
         39    0.000000000000E+000                                                     T               2         AD vind (axial) at blade 1, node 4, m/s
         40    0.000000000000E+000                                                     T               2         AD vind (tangential) at blade 1, node 4, m/s
         41   -4.411070644855E-001                                                     T               2         AD vind (axial) at blade 1, node 5, m/s
         42    4.525403082371E-001                                                     T               2         AD vind (tangential) at blade 1, node 5, m/s
         43   -3.765517771244E-001                                                     T               2         AD vind (axial) at blade 1, node 6, m/s
         44    3.134723901749E-001                                                     T               2         AD vind (tangential) at blade 1, node 6, m/s
         45   -4.119073450565E-001                                                     T               2         AD vind (axial) at blade 1, node 7, m/s
         46    2.776496112347E-001                                                     T               2         AD vind (tangential) at blade 1, node 7, m/s
         47   -3.983998000622E-001                                                     T               2         AD vind (axial) at blade 1, node 8, m/s
         48    2.287656813860E-001                                                     T               2         AD vind (tangential) at blade 1, node 8, m/s
         49   -3.892397284508E-001                                                     T               2         AD vind (axial) at blade 1, node 9, m/s
         50    1.943094134331E-001                                                     T               2         AD vind (tangential) at blade 1, node 9, m/s
         51   -3.989157974720E-001                                                     T               2         AD vind (axial) at blade 1, node 10, m/s
         52    1.750626564026E-001                                                     T               2         AD vind (tangential) at blade 1, node 10, m/s
         53   -4.110920131207E-001                                                     T               2         AD vind (axial) at blade 1, node 11, m/s
         54    1.606092602015E-001                                                     T               2         AD vind (tangential) at blade 1, node 11, m/s
         55   -4.248648881912E-001                                                     T               2         AD vind (axial) at blade 1, node 12, m/s
         56    1.491342782974E-001                                                     T               2         AD vind (tangential) at blade 1, node 12, m/s
         57   -5.089728832245E-001                                                     T               2         AD vind (axial) at blade 1, node 13, m/s
         58    1.584055721760E-001                                                     T               2         AD vind (tangential) at blade 1, node 13, m/s
         59   -5.369147658348E-001                                                     T               2         AD vind (axial) at blade 1, node 14, m/s
         60    1.515260934830E-001                                                     T               2         AD vind (tangential) at blade 1, node 14, m/s
         61   -5.833062529564E-001                                                     T               2         AD vind (axial) at blade 1, node 15, m/s
         62    1.492274701595E-001                                                     T               2         AD vind (tangential) at blade 1, node 15, m/s
         63   -6.593884825706E-001                                                     T               2         AD vind (axial) at blade 1, node 16, m/s
         64    1.543114781380E-001                                                     T               2         AD vind (tangential) at blade 1, node 16, m/s
         65   -7.700354456902E-001                                                     T               2         AD vind (axial) at blade 1, node 17, m/s
         66    1.658542454243E-001                                                     T               2         AD vind (tangential) at blade 1, node 17, m/s
         67   -9.005773067474E-001                                                     T               2         AD vind (axial) at blade 1, node 18, m/s
         68    1.783946603537E-001                                                     T               2         AD vind (tangential) at blade 1, node 18, m/s
         69   -4.235077381134E+000                                                     T               2         AD vind (axial) at blade 1, node 19, m/s
         70    0.000000000000E+000                                                     T               2         AD vind (tangential) at blade 1, node 19, m/s
         71   -3.925127506256E+000                                                     T               2         AD vind (axial) at blade 2, node 1, m/s
         72    0.000000000000E+000                                                     T               2         AD vind (tangential) at blade 2, node 1, m/s
         73    0.000000000000E+000                                                     T               2         AD vind (axial) at blade 2, node 2, m/s
         74    0.000000000000E+000                                                     T               2         AD vind (tangential) at blade 2, node 2, m/s
         75    0.000000000000E+000                                                     T               2         AD vind (axial) at blade 2, node 3, m/s
         76    0.000000000000E+000                                                     T               2         AD vind (tangential) at blade 2, node 3, m/s
         77    0.000000000000E+000                                                     T               2         AD vind (axial) at blade 2, node 4, m/s
         78    0.000000000000E+000                                                     T               2         AD vind (tangential) at blade 2, node 4, m/s
         79   -5.153144001961E-001                                                     T               2         AD vind (axial) at blade 2, node 5, m/s
         80    4.562640190125E-001                                                     T               2         AD vind (tangential) at blade 2, node 5, m/s
         81   -4.448006749153E-001                                                     T               2         AD vind (axial) at blade 2, node 6, m/s
         82    3.226955235004E-001                                                     T               2         AD vind (tangential) at blade 2, node 6, m/s
         83   -4.811520874500E-001                                                     T               2         AD vind (axial) at blade 2, node 7, m/s
         84    2.821395099163E-001                                                     T               2         AD vind (tangential) at blade 2, node 7, m/s
         85   -4.287525415421E-001                                                     T               2         AD vind (axial) at blade 2, node 8, m/s
         86    2.156320214272E-001                                                     T               2         AD vind (tangential) at blade 2, node 8, m/s
         87   -4.364313185215E-001                                                     T               2         AD vind (axial) at blade 2, node 9, m/s
         88    1.880014389753E-001                                                     T               2         AD vind (tangential) at blade 2, node 9, m/s
         89   -4.606760740280E-001                                                     T               2         AD vind (axial) at blade 2, node 10, m/s
         90    1.707711368799E-001                                                     T               2         AD vind (tangential) at blade 2, node 10, m/s
         91   -4.916022717953E-001                                                     T               2         AD vind (axial) at blade 2, node 11, m/s
         92    1.587016433477E-001                                                     T               2         AD vind (tangential) at blade 2, node 11, m/s
         93   -5.176587104797E-001                                                     T               2         AD vind (axial) at blade 2, node 12, m/s
         94    1.468135267496E-001                                                     T               2         AD vind (tangential) at blade 2, node 12, m/s
         95   -5.888478159904E-001                                                     T               2         AD vind (axial) at blade 2, node 13, m/s
         96    1.477171182632E-001                                                     T               2         AD vind (tangential) at blade 2, node 13, m/s
         97   -6.123704910278E-001                                                     T               2         AD vind (axial) at blade 2, node 14, m/s
         98    1.368938237429E-001                                                     T               2         AD vind (tangential) at blade 2, node 14, m/s
         99   -6.556301712990E-001                                                     T               2         AD vind (axial) at blade 2, node 15, m/s
        100    1.297800689936E-001                                                     T               2         AD vind (tangential) at blade 2, node 15, m/s
        101   -7.303809523582E-001                                                     T               2         AD vind (axial) at blade 2, node 16, m/s
        102    1.295585483313E-001                                                     T               2         AD vind (tangential) at blade 2, node 16, m/s
        103   -8.277267217636E-001                                                     T               2         AD vind (axial) at blade 2, node 17, m/s
        104    1.352620869875E-001                                                     T               2         AD vind (tangential) at blade 2, node 17, m/s
        105   -9.113379120827E-001                                                     T               2         AD vind (axial) at blade 2, node 18, m/s
        106    1.415842920542E-001                                                     T               2         AD vind (tangential) at blade 2, node 18, m/s
        107   -3.446542501450E+000                                                     T               2         AD vind (axial) at blade 2, node 19, m/s
        108    0.000000000000E+000                                                     T               2         AD vind (tangential) at blade 2, node 19, m/s
        109   -3.944615125656E+000                                                     T               2         AD vind (axial) at blade 3, node 1, m/s
        110    0.000000000000E+000                                                     T               2         AD vind (tangential) at blade 3, node 1, m/s
        111    0.000000000000E+000                                                     T               2         AD vind (axial) at blade 3, node 2, m/s
        112    0.000000000000E+000                                                     T               2         AD vind (tangential) at blade 3, node 2, m/s
        113    0.000000000000E+000                                                     T               2         AD vind (axial) at blade 3, node 3, m/s
        114    0.000000000000E+000                                                     T               2         AD vind (tangential) at blade 3, node 3, m/s
        115    0.000000000000E+000                                                     T               2         AD vind (axial) at blade 3, node 4, m/s
        116    0.000000000000E+000                                                     T               2         AD vind (tangential) at blade 3, node 4, m/s
        117   -3.764277398586E-001                                                     T               2         AD vind (axial) at blade 3, node 5, m/s
        118    4.282270669937E-001                                                     T               2         AD vind (tangential) at blade 3, node 5, m/s
        119   -3.353091180325E-001                                                     T               2         AD vind (axial) at blade 3, node 6, m/s
        120    2.935030758381E-001                                                     T               2         AD vind (tangential) at blade 3, node 6, m/s
        121   -3.822998404503E-001                                                     T               2         AD vind (axial) at blade 3, node 7, m/s
        122    2.607210576534E-001                                                     T               2         AD vind (tangential) at blade 3, node 7, m/s
        123   -3.814424872398E-001                                                     T               2         AD vind (axial) at blade 3, node 8, m/s
        124    2.150144726038E-001                                                     T               2         AD vind (tangential) at blade 3, node 8, m/s
        125   -3.801927864552E-001                                                     T               2         AD vind (axial) at blade 3, node 9, m/s
        126    1.817882061005E-001                                                     T               2         AD vind (tangential) at blade 3, node 9, m/s
        127   -3.980860412121E-001                                                     T               2         AD vind (axial) at blade 3, node 10, m/s
        128    1.636735349894E-001                                                     T               2         AD vind (tangential) at blade 3, node 10, m/s
        129   -4.205306470394E-001                                                     T               2         AD vind (axial) at blade 3, node 11, m/s
        130    1.506234854460E-001                                                     T               2         AD vind (tangential) at blade 3, node 11, m/s
        131   -4.459896385670E-001                                                     T               2         AD vind (axial) at blade 3, node 12, m/s
        132    1.406410187483E-001                                                     T               2         AD vind (tangential) at blade 3, node 12, m/s
        133   -5.435301065445E-001                                                     T               2         AD vind (axial) at blade 3, node 13, m/s
        134    1.487398296595E-001                                                     T               2         AD vind (tangential) at blade 3, node 13, m/s
        135   -5.734150409698E-001                                                     T               2         AD vind (axial) at blade 3, node 14, m/s
        136    1.400610208511E-001                                                     T               2         AD vind (tangential) at blade 3, node 14, m/s
        137   -6.212381124496E-001                                                     T               2         AD vind (axial) at blade 3, node 15, m/s
        138    1.351910829544E-001                                                     T               2         AD vind (tangential) at blade 3, node 15, m/s
        139   -6.996023654938E-001                                                     T               2         AD vind (axial) at blade 3, node 16, m/s
        140    1.368098706007E-001                                                     T               2         AD vind (tangential) at blade 3, node 16, m/s
        141   -8.134818077087E-001                                                     T               2         AD vind (axial) at blade 3, node 17, m/s
        142    1.435824781656E-001                                                     T               2         AD vind (tangential) at blade 3, node 17, m/s
        143   -9.423004388809E-001                                                     T               2         AD vind (axial) at blade 3, node 18, m/s
        144    1.495026946068E-001                                                     T               2         AD vind (tangential) at blade 3, node 18, m/s
        145   -3.536355018616E+000                                                     T               2         AD vind (axial) at blade 3, node 19, m/s
        146    0.000000000000E+000                                                     T               2         AD vind (tangential) at blade 3, node 19, m/s
        147   -1.601983785629E+000                                                     T               2         AD First time derivative of vind (axial) at blade 1, node 1, m/s/s
        148    0.000000000000E+000                                                     T               2         AD First time derivative of vind (tangential) at blade 1, node 1, m/s/s
        149    0.000000000000E+000                                                     T               2         AD First time derivative of vind (axial) at blade 1, node 2, m/s/s
        150    0.000000000000E+000                                                     T               2         AD First time derivative of vind (tangential) at blade 1, node 2, m/s/s
        151    0.000000000000E+000                                                     T               2         AD First time derivative of vind (axial) at blade 1, node 3, m/s/s
        152    0.000000000000E+000                                                     T               2         AD First time derivative of vind (tangential) at blade 1, node 3, m/s/s
        153    0.000000000000E+000                                                     T               2         AD First time derivative of vind (axial) at blade 1, node 4, m/s/s
        154    0.000000000000E+000                                                     T               2         AD First time derivative of vind (tangential) at blade 1, node 4, m/s/s
        155   -1.755944639444E-001                                                     T               2         AD First time derivative of vind (axial) at blade 1, node 5, m/s/s
        156    1.809542328119E-001                                                     T               2         AD First time derivative of vind (tangential) at blade 1, node 5, m/s/s
        157   -1.496820747852E-001                                                     T               2         AD First time derivative of vind (axial) at blade 1, node 6, m/s/s
        158    1.252099722624E-001                                                     T               2         AD First time derivative of vind (tangential) at blade 1, node 6, m/s/s
        159   -1.635711491108E-001                                                     T               2         AD First time derivative of vind (axial) at blade 1, node 7, m/s/s
        160    1.108525842428E-001                                                     T               2         AD First time derivative of vind (tangential) at blade 1, node 7, m/s/s
        161   -1.586207449436E-001                                                     T               2         AD First time derivative of vind (axial) at blade 1, node 8, m/s/s
        162    9.158183634281E-002                                                     T               2         AD First time derivative of vind (tangential) at blade 1, node 8, m/s/s
        163   -1.546695083380E-001                                                     T               2         AD First time derivative of vind (axial) at blade 1, node 9, m/s/s
        164    7.772548496723E-002                                                     T               2         AD First time derivative of vind (tangential) at blade 1, node 9, m/s/s
        165   -1.582412868738E-001                                                     T               2         AD First time derivative of vind (axial) at blade 1, node 10, m/s/s
        166    7.001222670078E-002                                                     T               2         AD First time derivative of vind (tangential) at blade 1, node 10, m/s/s
        167   -1.627692282200E-001                                                     T               2         AD First time derivative of vind (axial) at blade 1, node 11, m/s/s
        168    6.424731016159E-002                                                     T               2         AD First time derivative of vind (tangential) at blade 1, node 11, m/s/s
        169   -1.675272434950E-001                                                     T               2         AD First time derivative of vind (axial) at blade 1, node 12, m/s/s
        170    5.960433185101E-002                                                     T               2         AD First time derivative of vind (tangential) at blade 1, node 12, m/s/s