
Linearized model: Predictions were generated on 03-Jul-2025 at 08:26:12 using OpenFAST, compiled on Jun 19 2025 at 03:54:01 as a 64-bit application using single precision at commit v4.1.0
 linked with  NWTC Subroutine Library; ElastoDyn; InflowWind; AeroDyn; ServoDyn

Description from the FAST input file: NREL                   MW          - Baseline Wind Turbine (Onshore), Linearization with AeroDyn + ED

Simulation information:
   Simulation time:                     1.0000 s
   Rotor Speed:                         0.2716 rad/s
   Azimuth:                             0.2656 rad
   Wind Speed:                          4.0000 m/s
   Number of continuous states:        32
   Number of discrete states:           0
   Number of constraint states:         0
   Number of inputs:                    6
   Number of outputs:                  33
   Jacobians included in this file?    No

Order of continuous states:
   Row/Column Operating Point                                                   Rotating Frame? Derivative Order Description
   ---------- ---------------                                                   --------------- ---------------- -----------
          1    1.692415773869E-002                                                     F               2         1st tower fore-aft bending mode DOF (internal DOF index = DOF_TFA1), m
          2    6.808777106926E-005                                                     F               2         1st tower side-to-side bending mode DOF (internal DOF index = DOF_TSS1), m
          3   -2.676083386177E-005                                                     F               2         2nd tower fore-aft bending mode DOF (internal DOF index = DOF_TFA2), m
          4    1.482822699472E-005                                                     F               2         2nd tower side-to-side bending mode DOF (internal DOF index = DOF_TSS2), m
          5    4.502451702137E-005                                                     F               2         Nacelle yaw DOF (internal DOF index = DOF_Yaw), rad
          6    4.977953910828E+000                                                     F               2         Variable speed generator DOF (internal DOF index = DOF_GeAz), rad
          7    6.001662768540E-005                                                     F               2         Drivetrain rotational-flexibility DOF (internal DOF index = DOF_DrTr), rad
          8    6.758059859276E-001                                                     T               2         1st flapwise bending-mode DOF of blade 1 (internal DOF index = DOF_BF(1,1)), m
          9    7.654477953911E-001                                                     T               2         1st flapwise bending-mode DOF of blade 2 (internal DOF index = DOF_BF(2,1)), m
         10    5.207237601280E-001                                                     T               2         1st flapwise bending-mode DOF of blade 3 (internal DOF index = DOF_BF(3,1)), m
         11   -7.671986520290E-002                                                     T               2         1st edgewise bending-mode DOF of blade 1 (internal DOF index = DOF_BE(1,1)), m
         12    3.862908855081E-002                                                     T               2         1st edgewise bending-mode DOF of blade 2 (internal DOF index = DOF_BE(2,1)), m
         13    1.303636133671E-001                                                     T               2         1st edgewise bending-mode DOF of blade 3 (internal DOF index = DOF_BE(3,1)), m
         14    6.595625542104E-003                                                     T               2         2nd flapwise bending-mode DOF of blade 1 (internal DOF index = DOF_BF(1,2)), m
         15    1.238682959229E-002                                                     T               2         2nd flapwise bending-mode DOF of blade 2 (internal DOF index = DOF_BF(2,2)), m
         16    2.951955422759E-002                                                     T               2         2nd flapwise bending-mode DOF of blade 3 (internal DOF index = DOF_BF(3,2)), m
         17    6.924274563789E-002                                                     F               2         First time derivative of 1st tower fore-aft bending mode DOF (internal DOF index = DOF_TFA1), m/s
         18    8.331627584994E-003                                                     F               2         First time derivative of 1st tower side-to-side bending mode DOF (internal DOF index = DOF_TSS1), m/s
         19    1.562743418617E-004                                                     F               2         First time derivative of 2nd tower fore-aft bending mode DOF (internal DOF index = DOF_TFA2), m/s
         20   -9.307498839917E-005                                                     F               2         First time derivative of 2nd tower side-to-side bending mode DOF (internal DOF index = DOF_TSS2), m/s
         21   -4.865730297752E-004                                                     F               2         First time derivative of Nacelle yaw DOF (internal DOF index = DOF_Yaw), rad/s
         22    2.719675004482E-001                                                     F               2         First time derivative of Variable speed generator DOF (internal DOF index = DOF_GeAz), rad/s
         23   -3.628779668361E-004                                                     F               2         First time derivative of Drivetrain rotational-flexibility DOF (internal DOF index = DOF_DrTr), rad/s
         24   -1.323331952095E+000                                                     T               2         First time derivative of 1st flapwise bending-mode DOF of blade 1 (internal DOF index = DOF_BF(1,1)), m/s
         25   -2.058017969131E+000                                                     T               2         First time derivative of 1st flapwise bending-mode DOF of blade 2 (internal DOF index = DOF_BF(2,1)), m/s
         26   -8.278152942657E-001                                                     T               2         First time derivative of 1st flapwise bending-mode DOF of blade 3 (internal DOF index = DOF_BF(3,1)), m/s
         27   -3.185542672873E-002                                                     T               2         First time derivative of 1st edgewise bending-mode DOF of blade 1 (internal DOF index = DOF_BE(1,1)), m/s
         28   -1.298151612282E+000                                                     T               2         First time derivative of 1st edgewise bending-mode DOF of blade 2 (internal DOF index = DOF_BE(2,1)), m/s
         29    1.171214818954E+000                                                     T               2         First time derivative of 1st edgewise bending-mode DOF of blade 3 (internal DOF index = DOF_BE(3,1)), m/s
         30   -6.429111957550E-002                                                     T               2         First time derivative of 2nd flapwise bending-mode DOF of blade 1 (internal DOF index = DOF_BF(1,2)), m/s
         31   -1.460133492947E-001                                                     T               2         First time derivative of 2nd flapwise bending-mode DOF of blade 2 (internal DOF index = DOF_BF(2,2)), m/s
         32    6.591866910458E-002                                                     T               2         First time derivative of 2nd flapwise bending-mode DOF of blade 3 (internal DOF index = DOF_BF(3,2)), m/s

Order of continuous state derivatives:
   Row/Column Operating Point                                                   Rotating Frame? Derivative Order Description
   ---------- ---------------                                                   --------------- ---------------- -----------
          1    6.924274563789E-002                                                     F               2         First time derivative of 1st tower fore-aft bending mode DOF (internal DOF index = DOF_TFA1), m/s
          2    8.331627584994E-003                                                     F               2         First time derivative of 1st tower side-to-side bending mode DOF (internal DOF index = DOF_TSS1), m/s
          3    1.562743418617E-004                                                     F               2         First time derivative of 2nd tower fore-aft bending mode DOF (internal DOF index = DOF_TFA2), m/s
          4   -9.307498839917E-005                                                     F               2         First time derivative of 2nd tower side-to-side bending mode DOF (internal DOF index = DOF_TSS2), m/s
          5   -4.865730297752E-004                                                     F               2         First time derivative of Nacelle yaw DOF (internal DOF index = DOF_Yaw), rad/s
          6    2.719675004482E-001                                                     F               2         First time derivative of Variable speed generator DOF (internal DOF index = DOF_GeAz), rad/s
          7   -3.628779668361E-004                                                     F               2         First time derivative of Drivetrain rotational-flexibility DOF (internal DOF index = DOF_DrTr), rad/s
          8   -1.323331952095E+000                                                     T               2         First time derivative of 1st flapwise bending-mode DOF of blade 1 (internal DOF index = DOF_BF(1,1)), m/s
          9   -2.058017969131E+000                                                     T               2         First time derivative of 1st flapwise bending-mode DOF of blade 2 (internal DOF index = DOF_BF(2,1)), m/s
         10   -8.278152942657E-001                                                     T               2         First time derivative of 1st flapwise bending-mode DOF of blade 3 (internal DOF index = DOF_BF(3,1)), m/s
         11   -3.185542672873E-002                                                     T               2         First time derivative of 1st edgewise bending-mode DOF of blade 1 (internal DOF index = DOF_BE(1,1)), m/s
         12   -1.298151612282E+000                                                     T               2         First time derivative of 1st edgewise bending-mode DOF of blade 2 (internal DOF index = DOF_BE(2,1)), m/s
         13    1.171214818954E+000                                                     T               2         First time derivative of 1st edgewise bending-mode DOF of blade 3 (internal DOF index = DOF_BE(3,1)), m/s
         14   -6.429111957550E-002                                                     T               2         First time derivative of 2nd flapwise bending-mode DOF of blade 1 (internal DOF index = DOF_BF(1,2)), m/s
         15   -1.460133492947E-001                                                     T               2         First time derivative of 2nd flapwise bending-mode DOF of blade 2 (internal DOF index = DOF_BF(2,2)), m/s
         16    6.591866910458E-002                                                     T               2         First time derivative of 2nd flapwise bending-mode DOF of blade 3 (internal DOF index = DOF_BF(3,2)), m/s
         17    5.234962329268E-002                                                     F               2         First time derivative of First time derivative of 1st tower fore-aft bending mode DOF (internal DOF index = DOF_TFA1), m/s/s
         18    5.869567021728E-002                                                     F               2         First time derivative of First time derivative of 1st tower side-to-side bending mode DOF (internal DOF index = DOF_TSS1), m/s/s
         19   -1.067344099283E-002                                                     F               2         First time derivative of First time derivative of 2nd tower fore-aft bending mode DOF (internal DOF index = DOF_TFA2), m/s/s
         20   -1.121908775531E-003                                                     F               2         First time derivative of First time derivative of 2nd tower side-to-side bending mode DOF (internal DOF index = DOF_TSS2), m/s/s
         21   -2.563609741628E-003                                                     F               2         First time derivative of First time derivative of Nacelle yaw DOF (internal DOF index = DOF_Yaw), rad/s/s
         22    9.909724816680E-003                                                     F               2         First time derivative of First time derivative of Variable speed generator DOF (internal DOF index = DOF_GeAz), rad/s/s
         23    1.301347627304E-003                                                     F               2         First time derivative of First time derivative of Drivetrain rotational-flexibility DOF (internal DOF index = DOF_DrTr), rad/s/s
         24   -1.200192928314E+000                                                     T               2         First time derivative of First time derivative of 1st flapwise bending-mode DOF of blade 1 (internal DOF index = DOF_BF(1,1)), m/s/s
         25    2.613689899445E-001                                                     T               2         First time derivative of First time derivative of 1st flapwise bending-mode DOF of blade 2 (internal DOF index = DOF_BF(2,1)), m/s/s
         26   -5.576400756836E+000                                                     T               2         First time derivative of First time derivative of 1st flapwise bending-mode DOF of blade 3 (internal DOF index = DOF_BF(3,1)), m/s/s
         27   -3.732281625271E-001                                                     T               2         First time derivative of First time derivative of 1st edgewise bending-mode DOF of blade 1 (internal DOF index = DOF_BE(1,1)), m/s/s
         28   -1.462625312805E+001                                                     T               2         First time derivative of First time derivative of 1st edgewise bending-mode DOF of blade 2 (internal DOF index = DOF_BE(2,1)), m/s/s
         29    1.497561168671E+001                                                     T               2         First time derivative of First time derivative of 1st edgewise bending-mode DOF of blade 3 (internal DOF index = DOF_BE(3,1)), m/s/s
         30   -1.825753450394E+000                                                     T               2         First time derivative of First time derivative of 2nd flapwise bending-mode DOF of blade 1 (internal DOF index = DOF_BF(1,2)), m/s/s
         31   -3.487864017487E+000                                                     T               2         First time derivative of First time derivative of 2nd flapwise bending-mode DOF of blade 2 (internal DOF index = DOF_BF(2,2)), m/s/s
         32   -6.574000418186E-002                                                     T               2         First time derivative of First time derivative of 2nd flapwise bending-mode DOF of blade 3 (internal DOF index = DOF_BF(3,2)), m/s/s

Order of inputs:
     Column   Operating Point                                                   Rotating Frame? Derivative Order Description
   ---------- ---------------                                                   --------------- ---------------- -----------
          1    0.000000000000E+000                                                     T               0         Blade 1 pitch command, rad
          2    0.000000000000E+000                                                     T               0         Blade 2 pitch command, rad
          3    0.000000000000E+000                                                     T               0         Blade 3 pitch command, rad
          4   -3.971730000000E+005                                                     F               0         Yaw moment, Nm
          5    0.000000000000E+000                                                     F               0         Generator torque, Nm
          6    0.000000000000E+000                                                     F               0         Extended input: collective blade-pitch command, rad

Order of outputs:
        Row   Operating Point                                                   Rotating Frame? Derivative Order Description
   ---------- ---------------                                                   --------------- ---------------- -----------
          1    6.635744571686E-001                                                     T               0         OoPDefl1, (m)
          2   -1.609161943197E-001                                                     T               0         IPDefl1, (m)
          3    0.000000000000E+000                                                     T               0         TwstDefl1, (deg)
          4    0.000000000000E+000                                                     T               0         BldPitch1, (deg)
          5    1.521919059753E+001                                                     F               0         Azimuth, (deg)
          6    2.593633174896E+000                                                     F               0         RotSpeed, (rpm)
          7    2.519185333252E+002                                                     F               0         GenSpeed, (rpm)
          8    1.689739711583E-002                                                     F               0         TTDspFA, (m)
          9   -8.291599806398E-005                                                     F               0         TTDspSS, (m)
         10    0.000000000000E+000                                                     F               0         TTDspTwst, (deg)
         11    9.819371032715E+001                                                     T               0         Spn2MLxb1, (kN-m)
         12    3.268458557129E+002                                                     T               0         Spn2MLyb1, (kN-m)
         13    3.010540962219E+001                                                     T               0         RootFxb1, (kN)
         14   -4.231694793701E+001                                                     T               0         RootFyb1, (kN)
         15   -1.371567840576E+002                                                     T               0         RootFzb1, (kN)
         16    8.771491699219E+002                                                     T               0         RootMxb1, (kN-m)
         17    1.078990112305E+003                                                     T               0         RootMyb1, (kN-m)
         18    8.873529434204E-001                                                     T               0         RootMzb1, (kN-m)
         19    4.981739807129E+001                                                     F               0         RotTorq, (kN-m)
         20   -2.049162109375E+003                                                     F               0         LSSGagMya, (kN-m)
         21    8.836208496094E+002                                                     F               0         LSSGagMza, (kN-m)
         22    5.657283020020E+001                                                     F               0         YawBrFxp, (kN)
         23   -2.729219436646E+000                                                     F               0         YawBrFyp, (kN)
         24   -3.353813964844E+003                                                     F               0         YawBrFzp, (kN)
         25    8.990447235107E+001                                                     F               0         YawBrMxp, (kN-m)
         26   -6.852595825195E+002                                                     F               0         YawBrMyp, (kN-m)
         27    3.966933593750E+002                                                     F               0         YawBrMzp, (kN-m)
         28    2.663612556458E+001                                                     F               0         TwrBsFxt, (kN)
         29    6.200159549713E+000                                                     F               0         TwrBsFyt, (kN)
         30   -6.761243652344E+003                                                     F               0         TwrBsFzt, (kN)
         31   -1.851240386963E+002                                                     F               0         TwrBsMxt, (kN-m)
         32    2.775846923828E+003                                                     F               0         TwrBsMyt, (kN-m)
         33    3.966951293945E+002                                                     F               0         TwrBsMzt, (kN-m)


Linearized state matrices:

A: 32 x 32
    0.000000000000E+000  0.000000000000E+000  0.000000000000E+000  0.000000000000E+000  0.000000000000E+000  0.000000000000E+000  0.000000000000E+000  0.000000000000E+000  0.000000000000E+000  0.000000000000E+000  0.000000000000E+000  0.000000000000E+000  0.000000000000E+000  0.000000000000E+000  0.000000000000E+000  0.000000000000E+000  1.000000000000E+000  0.000000000000E+000  0.000000000000E+000  0.000000000000E+000  0.000000000000E+000  0.000000000000E+000  0.000000000000E+000  0.000000000000E+000  0.000000000000E+000  0.000000000000E+000  0.000000000000E+000  0.000000000000E+000  0.000000000000E+000  0.000000000000E+000  0.000000000000E+000  0.000000000000E+000
    0.000000000000E+000  0.000000000000E+000  0.000000000000E+000  0.000000000000E+000  0.000000000000E+000  0.000000000000E+000  0.000000000000E+000  0.000000000000E+000  0.000000000000E+000  0.000000000000E+000  0.000000000000E+000  0.000000000000E+000  0.000000000000E+000  0.000000000000E+000  0.000000000000E+000  0.000000000000E+000  0.000000000000E+000  1.000000000000E+000  0.000000000000E+000  0.000000000000E+000  0.000000000000E+000  0.000000000000E+000  0.000000000000E+000  0.000000000000E+000  0.000000000000E+000  0.000000000000E+000  0.000000000000E+000  0.000000000000E+000  0.000000000000E+000  0.000000000000E+000  0.000000000000E+000  0.000000000000E+000
    0.000000000000E+000  0.000000000000E+000  0.000000000000E+000  0.000000000000E+000  0.000000000000E+000  0.000000000000E+000  0.000000000000E+000  0.000000000000E+000  0.000000000000E+000  0.000000000000E+000  0.000000000000E+000  0.000000000000E+000  0.000000000000E+000  0.000000000000E+000  0.000000000000E+000  0.000000000000E+000  0.000000000000E+000  0.000000000000E+000  1.000000000000E+000  0.000000000000E+000  0.000000000000E+000  0.000000000000E+000  0.000000000000E+000  0.000000000000E+000  0.000000000000E+000  0.000000000000E+000  0.000000000000E+000  0.000000000000E+000  0.000000000000E+000  0.000000000000E+000  0.000000000000E+000  0.000000000000E+000
    0.000000000000E+000  0.000000000000E+000  0.000000000000E+000  0.000000000000E+000  0.000000000000E+000  0.000000000000E+000  0.000000000000E+000  0.000000000000E+000  0.000000000000E+000  0.000000000000E+000  0.000000000000E+000  0.000000000000E+000  0.000000000000E+000  0.000000000000E+000  0.000000000000E+000  0.000000000000E+000  0.000000000000E+000  0.000000000000E+000  0.000000000000E+000  1.000000000000E+000  0.000000000000E+000  0.000000000000E+000  0.000000000000E+000  0.000000000000E+000  0.000000000000E+000  0.000000000000E+000  0.000000000000E+000  0.000000000000E+000  0.000000000000E+000  0.000000000000E+000  0.000000000000E+000  0.000000000000E+000
    0.000000000000E+000  0.000000000000E+000  0.000000000000E+000  0.000000000000E+000  0.000000000000E+000  0.000000000000E+000  0.000000000000E+000  0.000000000000E+000  0.000000000000E+000  0.000000000000E+000  0.000000000000E+000  0.000000000000E+000  0.000000000000E+000  0.000000000000E+000  0.000000000000E+000  0.000000000000E+000  0.000000000000E+000  0.000000000000E+000  0.000000000000E+000  0.000000000000E+000  1.000000000000E+000  0.000000000000E+000  0.000000000000E+000  0.000000000000E+000  0.000000000000E+000  0.000000000000E+000  0.000000000000E+000  0.000000000000E+000  0.000000000000E+000  0.000000000000E+000  0.000000000000E+000  0.000000000000E+000
    0.000000000000E+000  0.000000000000E+000  0.000000000000E+000  0.000000000000E+000  0.000000000000E+000  0.000000000000E+000  0.000000000000E+000  0.000000000000E+000  0.000000000000E+000  0.000000000000E+000  0.000000000000E+000  0.000000000000E+000  0.000000000000E+000  0.000000000000E+000  0.000000000000E+000  0.000000000000E+000  0.000000000000E+000  0.000000000000E+000  0.000000000000E+000  0.000000000000E+000  0.000000000000E+000  1.000000000000E+000  0.000000000000E+000  0.000000000000E+000  0.000000000000E+000  0.000000000000E+000  0.000000000000E+000  0.000000000000E+000  0.000000000000E+000  0.000000000000E+000  0.000000000000E+000  0.000000000000E+000
    0.000000000000E+000  0.000000000000E+000  0.000000000000E+000  0.000000000000E+000  0.000000000000E+000  0.000000000000E+000  0.000000000000E+000  0.000000000000E+000  0.000000000000E+000  0.000000000000E+000  0.000000000000E+000  0.000000000000E+000  0.000000000000E+000  0.000000000000E+000  0.000000000000E+000  0.000000000000E+000  0.000000000000E+000  0.000000000000E+000  0.000000000000E+000  0.000000000000E+000  0.000000000000E+000  0.000000000000E+000  1.000000000000E+000  0.000000000000E+000  0.000000000000E+000  0.000000000000E+000  0.000000000000E+000  0.000000000000E+000  0.000000000000E+000  0.000000000000E+000  0.000000000000E+000  0.000000000000E+000
    0.000000000000E+000  0.000000000000E+000  0.000000000000E+000  0.000000000000E+000  0.000000000000E+000  0.000000000000E+000  0.000000000000E+000  0.000000000000E+000  0.000000000000E+000  0.000000000000E+000  0.000000000000E+000  0.000000000000E+000  0.000000000000E+000  0.000000000000E+000  0.000000000000E+000  0.000000000000E+000  0.000000000000E+000  0.000000000000E+000  0.000000000000E+000  0.000000000000E+000  0.000000000000E+000  0.000000000000E+000  0.000000000000E+000  1.000000000000E+000  0.000000000000E+000  0.000000000000E+000  0.000000000000E+000  0.000000000000E+000  0.000000000000E+000  0.000000000000E+000  0.000000000000E+000  0.000000000000E+000
    0.000000000000E+000  0.000000000000E+000  0.000000000000E+000  0.000000000000E+000  0.000000000000E+000  0.000000000000E+000  0.000000000000E+000  0.000000000000E+000  0.000000000000E+000  0.000000000000E+000  0.000000000000E+000  0.000000000000E+000  0.000000000000E+000  0.000000000000E+000  0.000000000000E+000  0.000000000000E+000  0.000000000000E+000  0.000000000000E+000  0.000000000000E+000  0.000000000000E+000  0.000000000000E+000  0.000000000000E+000  0.000000000000E+000  0.000000000000E+000  1.000000000000E+000  0.000000000000E+000  0.000000000000E+000  0.000000000000E+000  0.000000000000E+000  0.000000000000E+000  0.000000000000E+000  0.000000000000E+000
    0.000000000000E+000  0.000000000000E+000  0.000000000000E+000  0.000000000000E+000  0.000000000000E+000  0.000000000000E+000  0.000000000000E+000  0.000000000000E+000  0.000000000000E+000  0.000000000000E+000  0.000000000000E+000  0.000000000000E+000  0.000000000000E+000  0.000000000000E+000  0.000000000000E+000  0.000000000000E+000  0.000000000000E+000  0.000000000000E+000  0.000000000000E+000  0.000000000000E+000  0.000000000000E+000  0.000000000000E+000  0.000000000000E+000  0.000000000000E+000  0.000000000000E+000  1.000000000000E+000  0.000000000000E+000  0.000000000000E+000  0.000000000000E+000  0.000000000000E+000  0.000000000000E+000  0.000000000000E+000
    0.000000000000E+000  0.000000000000E+000  0.000000000000E+000  0.000000000000E+000  0.000000000000E+000  0.000000000000E+000  0.000000000000E+000  0.000000000000E+000  0.000000000000E+000  0.000000000000E+000  0.000000000000E+000  0.000000000000E+000  0.000000000000E+000  0.000000000000E+000  0.000000000000E+000  0.000000000000E+000  0.000000000000E+000  0.000000000000E+000  0.000000000000E+000  0.000000000000E+000  0.000000000000E+000  0.000000000000E+000  0.000000000000E+000  0.000000000000E+000  0.000000000000E+000  0.000000000000E+000  1.000000000000E+000  0.000000000000E+000  0.000000000000E+000  0.000000000000E+000  0.000000000000E+000  0.000000000000E+000
    0.000000000000E+000  0.000000000000E+000  0.000000000000E+000  0.000000000000E+000  0.000000000000E+000  0.000000000000E+000  0.000000000000E+000  0.000000000000E+000  0.000000000000E+000  0.000000000000E+000  0.000000000000E+000  0.000000000000E+000  0.000000000000E+000  0.000000000000E+000  0.000000000000E+000  0.000000000000E+000  0.000000000000E+000  0.000000000000E+000  0.000000000000E+000  0.000000000000E+000  0.000000000000E+000  0.000000000000E+000  0.000000000000E+000  0.000000000000E+000  0.000000000000E+000  0.000000000000E+000  0.000000000000E+000  1.000000000000E+000  0.000000000000E+000  0.000000000000E+000  0.000000000000E+000  0.000000000000E+000
    0.000000000000E+000  0.000000000000E+000  0.000000000000E+000  0.000000000000E+000  0.000000000000E+000  0.000000000000E+000  0.000000000000E+000  0.000000000000E+000  0.000000000000E+000  0.000000000000E+000  0.000000000000E+000  0.000000000000E+000  0.000000000000E+000  0.000000000000E+000  0.000000000000E+000  0.000000000000E+000  0.000000000000E+000  0.000000000000E+000  0.000000000000E+000  0.000000000000E+000  0.000000000000E+000  0.000000000000E+000  0.000000000000E+000  0.000000000000E+000  0.000000000000E+000  0.000000000000E+000  0.000000000000E+000  0.000000000000E+000  1.000000000000E+000  0.000000000000E+000  0.000000000000E+000  0.000000000000E+000