
Linearized model: Predictions were generated on 03-Jul-2025 at 08:26:12 using OpenFAST, compiled on Jun 19 2025 at 03:54:01 as a 64-bit application using single precision at commit v4.1.0
 linked with  NWTC Subroutine Library; ElastoDyn; InflowWind; AeroDyn; ServoDyn

Description from the FAST input file: NREL                   MW          - Baseline Wind Turbine (Onshore), Linearization with AeroDyn + ED

Simulation information:
   Simulation time:                     1.0000 s
   Rotor Speed:                         0.2716 rad/s
   Azimuth:                             0.2656 rad
   Wind Speed:                          4.0000 m/s
   Number of continuous states:       228
   Number of discrete states:           0
   Number of constraint states:         0
   Number of inputs:                   60
   Number of outputs:                   1
   Jacobians included in this file?    No

Order of continuous states:
   Row/Column Operating Point                                                   Rotating Frame? Derivative Order Description
   ---------- ---------------                                                   --------------- ---------------- -----------
          1   -4.002723693848E+000                                                     T               2         vind (axial) at blade 1, node 1, m/s
          2    0.000000000000E+000                                                     T               2         vind (tangential) at blade 1, node 1, m/s
          3    0.000000000000E+000                                                     T               2         vind (axial) at blade 1, node 2, m/s
          4    0.000000000000E+000                                                     T               2         vind (tangential) at blade 1, node 2, m/s
          5    0.000000000000E+000                                                     T               2         vind (axial) at blade 1, node 3, m/s
          6    0.000000000000E+000                                                     T               2         vind (tangential) at blade 1, node 3, m/s
          7    0.000000000000E+000                                                     T               2         vind (axial) at blade 1, node 4, m/s
          8    0.000000000000E+000                                                     T               2         vind (tangential) at blade 1, node 4, m/s
          9   -4.411070644855E-001                                                     T               2         vind (axial) at blade 1, node 5, m/s
         10    4.525403082371E-001                                                     T               2         vind (tangential) at blade 1, node 5, m/s
         11   -3.765517771244E-001                                                     T               2         vind (axial) at blade 1, node 6, m/s
         12    3.134723901749E-001                                                     T               2         vind (tangential) at blade 1, node 6, m/s
         13   -4.119073450565E-001                                                     T               2         vind (axial) at blade 1, node 7, m/s
         14    2.776496112347E-001                                                     T               2         vind (tangential) at blade 1, node 7, m/s
         15   -3.983998000622E-001                                                     T               2         vind (axial) at blade 1, node 8, m/s
         16    2.287656813860E-001                                                     T               2         vind (tangential) at blade 1, node 8, m/s
         17   -3.892397284508E-001                                                     T               2         vind (axial) at blade 1, node 9, m/s
         18    1.943094134331E-001                                                     T               2         vind (tangential) at blade 1, node 9, m/s
         19   -3.989157974720E-001                                                     T               2         vind (axial) at blade 1, node 10, m/s
         20    1.750626564026E-001                                                     T               2         vind (tangential) at blade 1, node 10, m/s
         21   -4.110920131207E-001                                                     T               2         vind (axial) at blade 1, node 11, m/s
         22    1.606092602015E-001                                                     T               2         vind (tangential) at blade 1, node 11, m/s
         23   -4.248648881912E-001                                                     T               2         vind (axial) at blade 1, node 12, m/s
         24    1.491342782974E-001                                                     T               2         vind (tangential) at blade 1, node 12, m/s
         25   -5.089728832245E-001                                                     T               2         vind (axial) at blade 1, node 13, m/s
         26    1.584055721760E-001                                                     T               2         vind (tangential) at blade 1, node 13, m/s
         27   -5.369147658348E-001                                                     T               2         vind (axial) at blade 1, node 14, m/s
         28    1.515260934830E-001                                                     T               2         vind (tangential) at blade 1, node 14, m/s
         29   -5.833062529564E-001                                                     T               2         vind (axial) at blade 1, node 15, m/s
         30    1.492274701595E-001                                                     T               2         vind (tangential) at blade 1, node 15, m/s
         31   -6.593884825706E-001                                                     T               2         vind (axial) at blade 1, node 16, m/s
         32    1.543114781380E-001                                                     T               2         vind (tangential) at blade 1, node 16, m/s
         33   -7.700354456902E-001                                                     T               2         vind (axial) at blade 1, node 17, m/s
         34    1.658542454243E-001                                                     T               2         vind (tangential) at blade 1, node 17, m/s
         35   -9.005773067474E-001                                                     T               2         vind (axial) at blade 1, node 18, m/s
         36    1.783946603537E-001                                                     T               2         vind (tangential) at blade 1, node 18, m/s
         37   -4.235077381134E+000                                                     T               2         vind (axial) at blade 1, node 19, m/s
         38    0.000000000000E+000                                                     T               2         vind (tangential) at blade 1, node 19, m/s
         39   -3.925127506256E+000                                                     T               2         vind (axial) at blade 2, node 1, m/s
         40    0.000000000000E+000                                                     T               2         vind (tangential) at blade 2, node 1, m/s
         41    0.000000000000E+000                                                     T               2         vind (axial) at blade 2, node 2, m/s
         42    0.000000000000E+000                                                     T               2         vind (tangential) at blade 2, node 2, m/s
         43    0.000000000000E+000                                                     T               2         vind (axial) at blade 2, node 3, m/s
         44    0.000000000000E+000                                                     T               2         vind (tangential) at blade 2, node 3, m/s
         45    0.000000000000E+000                                                     T               2         vind (axial) at blade 2, node 4, m/s
         46    0.000000000000E+000                                                     T               2         vind (tangential) at blade 2, node 4, m/s
         47   -5.153144001961E-001                                                     T               2         vind (axial) at blade 2, node 5, m/s
         48    4.562640190125E-001                                                     T               2         vind (tangential) at blade 2, node 5, m/s
         49   -4.448006749153E-001                                                     T               2         vind (axial) at blade 2, node 6, m/s
         50    3.226955235004E-001                                                     T               2         vind (tangential) at blade 2, node 6, m/s
         51   -4.811520874500E-001                                                     T               2         vind (axial) at blade 2, node 7, m/s
         52    2.821395099163E-001                                                     T               2         vind (tangential) at blade 2, node 7, m/s
         53   -4.287525415421E-001                                                     T               2         vind (axial) at blade 2, node 8, m/s
         54    2.156320214272E-001                                                     T               2         vind (tangential) at blade 2, node 8, m/s
         55   -4.364313185215E-001                                                     T               2         vind (axial) at blade 2, node 9, m/s
         56    1.880014389753E-001                                                     T               2         vind (tangential) at blade 2, node 9, m/s
         57   -4.606760740280E-001                                                     T               2         vind (axial) at blade 2, node 10, m/s
         58    1.707711368799E-001                                                     T               2         vind (tangential) at blade 2, node 10, m/s
         59   -4.916022717953E-001                                                     T               2         vind (axial) at blade 2, node 11, m/s
         60    1.587016433477E-001                                                     T               2         vind (tangential) at blade 2, node 11, m/s
         61   -5.176587104797E-001                                                     T               2         vind (axial) at blade 2, node 12, m/s
         62    1.468135267496E-001                                                     T               2         vind (tangential) at blade 2, node 12, m/s
         63   -5.888478159904E-001                                                     T               2         vind (axial) at blade 2, node 13, m/s
         64    1.477171182632E-001                                                     T               2         vind (tangential) at blade 2, node 13, m/s
         65   -6.123704910278E-001                                                     T               2         vind (axial) at blade 2, node 14, m/s
         66    1.368938237429E-001                                                     T               2         vind (tangential) at blade 2, node 14, m/s
         67   -6.556301712990E-001                                                     T               2         vind (axial) at blade 2, node 15, m/s
         68    1.297800689936E-001                                                     T               2         vind (tangential) at blade 2, node 15, m/s
         69   -7.303809523582E-001                                                     T               2         vind (axial) at blade 2, node 16, m/s
         70    1.295585483313E-001                                                     T               2         vind (tangential) at blade 2, node 16, m/s
         71   -8.277267217636E-001                                                     T               2         vind (axial) at blade 2, node 17, m/s
         72    1.352620869875E-001                                                     T               2         vind (tangential) at blade 2, node 17, m/s
         73   -9.113379120827E-001                                                     T               2         vind (axial) at blade 2, node 18, m/s
         74    1.415842920542E-001                                                     T               2         vind (tangential) at blade 2, node 18, m/s
         75   -3.446542501450E+000                                                     T               2         vind (axial) at blade 2, node 19, m/s
         76    0.000000000000E+000                                                     T               2         vind (tangential) at blade 2, node 19, m/s
         77   -3.944615125656E+000                                                     T               2         vind (axial) at blade 3, node 1, m/s
         78    0.000000000000E+000                                                     T               2         vind (tangential) at blade 3, node 1, m/s
         79    0.000000000000E+000                                                     T               2         vind (axial) at blade 3, node 2, m/s
         80    0.000000000000E+000                                                     T               2         vind (tangential) at blade 3, node 2, m/s
         81    0.000000000000E+000                                                     T               2         vind (axial) at blade 3, node 3, m/s
         82    0.000000000000E+000                                                     T               2         vind (tangential) at blade 3, node 3, m/s
         83    0.000000000000E+000                                                     T               2         vind (axial) at blade 3, node 4, m/s
         84    0.000000000000E+000                                                     T               2         vind (tangential) at blade 3, node 4, m/s
         85   -3.764277398586E-001                                                     T               2         vind (axial) at blade 3, node 5, m/s
         86    4.282270669937E-001                                                     T               2         vind (tangential) at blade 3, node 5, m/s
         87   -3.353091180325E-001                                                     T               2         vind (axial) at blade 3, node 6, m/s
         88    2.935030758381E-001                                                     T               2         vind (tangential) at blade 3, node 6, m/s
         89   -3.822998404503E-001                                                     T               2         vind (axial) at blade 3, node 7, m/s
         90    2.607210576534E-001                                                     T               2         vind (tangential) at blade 3, node 7, m/s
         91   -3.814424872398E-001                                                     T               2         vind (axial) at blade 3, node 8, m/s
         92    2.150144726038E-001                                                     T               2         vind (tangential) at blade 3, node 8, m/s
         93   -3.801927864552E-001                                                     T               2         vind (axial) at blade 3, node 9, m/s
         94    1.817882061005E-001                                                     T               2         vind (tangential) at blade 3, node 9, m/s
         95   -3.980860412121E-001                                                     T               2         vind (axial) at blade 3, node 10, m/s
         96    1.636735349894E-001                                                     T               2         vind (tangential) at blade 3, node 10, m/s
         97   -4.205306470394E-001                                                     T               2         vind (axial) at blade 3, node 11, m/s
         98    1.506234854460E-001                                                     T               2         vind (tangential) at blade 3, node 11, m/s
         99   -4.459896385670E-001                                                     T               2         vind (axial) at blade 3, node 12, m/s
        100    1.406410187483E-001                                                     T               2         vind (tangential) at blade 3, node 12, m/s
        101   -5.435301065445E-001                                                     T               2         vind (axial) at blade 3, node 13, m/s
        102    1.487398296595E-001                                                     T               2         vind (tangential) at blade 3, node 13, m/s
        103   -5.734150409698E-001                                                     T               2         vind (axial) at blade 3, node 14, m/s
        104    1.400610208511E-001                                                     T               2         vind (tangential) at blade 3, node 14, m/s
        105   -6.212381124496E-001                                                     T               2         vind (axial) at blade 3, node 15, m/s
        106    1.351910829544E-001                                                     T               2         vind (tangential) at blade 3, node 15, m/s
        107   -6.996023654938E-001                                                     T               2         vind (axial) at blade 3, node 16, m/s
        108    1.368098706007E-001                                                     T               2         vind (tangential) at blade 3, node 16, m/s
        109   -8.134818077087E-001                                                     T               2         vind (axial) at blade 3, node 17, m/s
        110    1.435824781656E-001                                                     T               2         vind (tangential) at blade 3, node 17, m/s
        111   -9.423004388809E-001                                                     T               2         vind (axial) at blade 3, node 18, m/s
        112    1.495026946068E-001                                                     T               2         vind (tangential) at blade 3, node 18, m/s
        113   -3.536355018616E+000                                                     T               2         vind (axial) at blade 3, node 19, m/s
        114    0.000000000000E+000                                                     T               2         vind (tangential) at blade 3, node 19, m/s
        115   -1.601983785629E+000                                                     T               2         First time derivative of vind (axial) at blade 1, node 1, m/s/s
        116    0.000000000000E+000                                                     T               2         First time derivative of vind (tangential) at blade 1, node 1, m/s/s
        117    0.000000000000E+000                                                     T               2         First time derivative of vind (axial) at blade 1, node 2, m/s/s
        118    0.000000000000E+000                                                     T               2         First time derivative of vind (tangential) at blade 1, node 2, m/s/s
        119    0.000000000000E+000                                                     T               2         First time derivative of vind (axial) at blade 1, node 3, m/s/s
        120    0.000000000000E+000                                                     T               2         First time derivative of vind (tangential) at blade 1, node 3, m/s/s
        121    0.000000000000E+000                                                     T               2         First time derivative of vind (axial) at blade 1, node 4, m/s/s
        122    0.000000000000E+000                                                     T               2         First time derivative of vind (tangential) at blade 1, node 4, m/s/s
        123   -1.755944639444E-001                                                     T               2         First time derivative of vind (axial) at blade 1, node 5, m/s/s
        124    1.809542328119E-001                                                     T               2         First time derivative of vind (tangential) at blade 1, node 5, m/s/s
        125   -1.496820747852E-001                                                     T               2         First time derivative of vind (axial) at blade 1, node 6, m/s/s
        126    1.252099722624E-001                                                     T               2         First time derivative of vind (tangential) at blade 1, node 6, m/s/s
        127   -1.635711491108E-001                                                     T               2         First time derivative of vind (axial) at blade 1, node 7, m/s/s
        128    1.108525842428E-001                                                     T               2         First time derivative of vind (tangential) at blade 1, node 7, m/s/s
        129   -1.586207449436E-001                                                     T               2         First time derivative of vind (axial) at blade 1, node 8, m/s/s
        130    9.158183634281E-002                                                     T               2         First time derivative of vind (tangential) at blade 1, node 8, m/s/s
        131   -1.546695083380E-001                                                     T               2         First time derivative of vind (axial) at blade 1, node 9, m/s/s
        132    7.772548496723E-002                                                     T               2         First time derivative of vind (tangential) at blade 1, node 9, m/s/s
        133   -1.582412868738E-001                                                     T               2         First time derivative of vind (axial) at blade 1, node 10, m/s/s
        134    7.001222670078E-002                                                     T               2         First time derivative of vind (tangential) at blade 1, node 10, m/s/s
        135   -1.627692282200E-001                                                     T               2         First time derivative of vind (axial) at blade 1, node 11, m/s/s
        136    6.424731016159E-002                                                     T               2         First time derivative of vind (tangential) at blade 1, node 11, m/s/s
        137   -1.675272434950E-001                                                     T               2         First time derivative of vind (axial) at blade 1, node 12, m/s/s
        138    5.960433185101E-002                                                     T               2         First time derivative of vind (tangential) at blade 1, node 12, m/s/s
        139   -1.997418701649E-001                                                     T               2         First time derivative of vind (axial) at blade 1, node 13, m/s/s
        140    6.332964450121E-002                                                     T               2         First time derivative of vind (tangential) at blade 1, node 13, m/s/s
        141   -2.101565301418E-001                                                     T               2         First time derivative of vind (axial) at blade 1, node 14, m/s/s
        142    6.076129898429E-002                                                     T               2         First time derivative of vind (tangential) at blade 1, node 14, m/s/s
        143   -2.281529903412E-001                                                     T               2         First time derivative of vind (axial) at blade 1, node 15, m/s/s
        144    6.019800901413E-002                                                     T               2         First time derivative of vind (tangential) at blade 1, node 15, m/s/s
        145   -2.582063674927E-001                                                     T               2         First time derivative of vind (axial) at blade 1, node 16, m/s/s
        146    6.269644200802E-002                                                     T               2         First time derivative of vind (tangential) at blade 1, node 16, m/s/s
        147   -3.021899759769E-001                                                     T               2         First time derivative of vind (axial) at blade 1, node 17, m/s/s
        148    6.783621013165E-002                                                     T               2         First time derivative of vind (tangential) at blade 1, node 17, m/s/s
        149   -3.550321161747E-001                                                     T               2         First time derivative of vind (axial) at blade 1, node 18, m/s/s
        150    7.335945963860E-002                                                     T               2         First time derivative of vind (tangential) at blade 1, node 18, m/s/s
        151   -1.719359993935E+000                                                     T               2         First time derivative of vind (axial) at blade 1, node 19, m/s/s
        152    0.000000000000E+000                                                     T               2         First time derivative of vind (tangential) at blade 1, node 19, m/s/s
        153   -1.572476506233E+000                                                     T               2         First time derivative of vind (axial) at blade 2, node 1, m/s/s
        154    0.000000000000E+000                                                     T               2         First time derivative of vind (tangential) at blade 2, node 1, m/s/s
        155    0.000000000000E+000                                                     T               2         First time derivative of vind (axial) at blade 2, node 2, m/s/s
        156    0.000000000000E+000                                                     T               2         First time derivative of vind (tangential) at blade 2, node 2, m/s/s
        157    0.000000000000E+000                                                     T               2         First time derivative of vind (axial) at blade 2, node 3, m/s/s
        158    0.000000000000E+000                                                     T               2         First time derivative of vind (tangential) at blade 2, node 3, m/s/s
        159    0.000000000000E+000                                                     T               2         First time derivative of vind (axial) at blade 2, node 4, m/s/s
        160    0.000000000000E+000                                                     T               2         First time derivative of vind (tangential) at blade 2, node 4, m/s/s
        161   -2.056891769171E-001                                                     T               2         First time derivative of vind (axial) at blade 2, node 5, m/s/s
        162    1.825708597898E-001                                                     T               2         First time derivative of vind (tangential) at blade 2, node 5, m/s/s
        163   -1.774159669876E-001                                                     T               2         First time derivative of vind (axial) at blade 2, node 6, m/s/s
        164    1.290404945612E-001                                                     T               2         First time derivative of vind (tangential) at blade 2, node 6, m/s/s
        165   -1.920157372952E-001                                                     T               2         First time derivative of vind (axial) at blade 2, node 7, m/s/s
        166    1.129042282701E-001                                                     T               2         First time derivative of vind (tangential) at blade 2, node 7, m/s/s
        167   -1.709344536066E-001                                                     T               2         First time derivative of vind (axial) at blade 2, node 8, m/s/s
        168    8.626131713390E-002                                                     T               2         First time derivative of vind (tangential) at blade 2, node 8, m/s/s
        169   -1.740216910839E-001                                                     T               2         First time derivative of vind (axial) at blade 2, node 9, m/s/s
        170    7.527923583984E-002                                                     T               2         First time derivative of vind (tangential) at blade 2, node 9, m/s/s
        171   -1.819432824850E-001                                                     T               2         First time derivative of vind (axial) at blade 2, node 10, m/s/s
        172    6.802257150412E-002                                                     T               2         First time derivative of vind (tangential) at blade 2, node 10, m/s/s
        173   -1.936613768339E-001                                                     T               2         First time derivative of vind (axial) at blade 2, node 11, m/s/s
        174    6.328448653221E-002                                                     T               2         First time derivative of vind (tangential) at blade 2, node 11, m/s/s
        175   -2.029786556959E-001                                                     T               2         First time derivative of vind (axial) at blade 2, node 12, m/s/s
        176    5.860280990601E-002                                                     T               2         First time derivative of vind (tangential) at blade 2, node 12, m/s/s
        177   -2.347988188267E-001                                                     T               2         First time derivative of vind (axial) at blade 2, node 13, m/s/s