
Linearized model: Predictions were generated on 03-Jul-2025 at 08:26:12 using OpenFAST, compiled on Jun 19 2025 at 03:54:01 as a 64-bit application using single precision at commit v4.1.0
 linked with  NWTC Subroutine Library; ElastoDyn; InflowWind; AeroDyn; ServoDyn

Description from the FAST input file: NREL                   MW          - Baseline Wind Turbine (Onshore), Linearization with AeroDyn + ED

Simulation information:
   Simulation time:                     1.0000 s
   Rotor Speed:                         0.6237 rad/s
   Azimuth:                             0.6070 rad
   Wind Speed:                          6.6667 m/s
   Number of continuous states:       228
   Number of discrete states:           0
   Number of constraint states:         0
   Number of inputs:                   60
   Number of outputs:                   1
   Jacobians included in this file?    No

Order of continuous states:
   Row/Column Operating Point                                                   Rotating Frame? Derivative Order Description
   ---------- ---------------                                                   --------------- ---------------- -----------
          1   -6.636320590973E+000                                                     T               2         vind (axial) at blade 1, node 1, m/s
          2    0.000000000000E+000                                                     T               2         vind (tangential) at blade 1, node 1, m/s
          3    0.000000000000E+000                                                     T               2         vind (axial) at blade 1, node 2, m/s
          4    0.000000000000E+000                                                     T               2         vind (tangential) at blade 1, node 2, m/s
          5    0.000000000000E+000                                                     T               2         vind (axial) at blade 1, node 3, m/s
          6    0.000000000000E+000                                                     T               2         vind (tangential) at blade 1, node 3, m/s
          7    0.000000000000E+000                                                     T               2         vind (axial) at blade 1, node 4, m/s
          8    0.000000000000E+000                                                     T               2         vind (tangential) at blade 1, node 4, m/s
          9   -1.160723328590E+000                                                     T               2         vind (axial) at blade 1, node 5, m/s
         10    8.215904831886E-001                                                     T               2         vind (tangential) at blade 1, node 5, m/s
         11   -1.182680487633E+000                                                     T               2         vind (axial) at blade 1, node 6, m/s
         12    6.478273868561E-001                                                     T               2         vind (tangential) at blade 1, node 6, m/s
         13   -1.445633172989E+000                                                     T               2         vind (axial) at blade 1, node 7, m/s
         14    6.177574992180E-001                                                     T               2         vind (tangential) at blade 1, node 7, m/s
         15   -1.392019033432E+000                                                     T               2         vind (axial) at blade 1, node 8, m/s
         16    5.086753368378E-001                                                     T               2         vind (tangential) at blade 1, node 8, m/s
         17   -1.371051192284E+000                                                     T               2         vind (axial) at blade 1, node 9, m/s
         18    4.341898560524E-001                                                     T               2         vind (tangential) at blade 1, node 9, m/s
         19   -1.442337632179E+000                                                     T               2         vind (axial) at blade 1, node 10, m/s
         20    3.964948356152E-001                                                     T               2         vind (tangential) at blade 1, node 10, m/s
         21   -1.483485102654E+000                                                     T               2         vind (axial) at blade 1, node 11, m/s
         22    3.591918349266E-001                                                     T               2         vind (tangential) at blade 1, node 11, m/s
         23   -1.533993244171E+000                                                     T               2         vind (axial) at blade 1, node 12, m/s
         24    3.293307423592E-001                                                     T               2         vind (tangential) at blade 1, node 12, m/s
         25   -1.469622373581E+000                                                     T               2         vind (axial) at blade 1, node 13, m/s
         26    2.874824106693E-001                                                     T               2         vind (tangential) at blade 1, node 13, m/s
         27   -1.513102293015E+000                                                     T               2         vind (axial) at blade 1, node 14, m/s
         28    2.640383243561E-001                                                     T               2         vind (tangential) at blade 1, node 14, m/s
         29   -1.611044883728E+000                                                     T               2         vind (axial) at blade 1, node 15, m/s
         30    2.474191784859E-001                                                     T               2         vind (tangential) at blade 1, node 15, m/s
         31   -1.776339769363E+000                                                     T               2         vind (axial) at blade 1, node 16, m/s
         32    2.431538254023E-001                                                     T               2         vind (tangential) at blade 1, node 16, m/s
         33   -1.992081522942E+000                                                     T               2         vind (axial) at blade 1, node 17, m/s
         34    2.481128424406E-001                                                     T               2         vind (tangential) at blade 1, node 17, m/s
         35   -2.158869504929E+000                                                     T               2         vind (axial) at blade 1, node 18, m/s
         36    2.512356042862E-001                                                     T               2         vind (tangential) at blade 1, node 18, m/s
         37   -6.357259750366E+000                                                     T               2         vind (axial) at blade 1, node 19, m/s
         38    0.000000000000E+000                                                     T               2         vind (tangential) at blade 1, node 19, m/s
         39   -6.476583003998E+000                                                     T               2         vind (axial) at blade 2, node 1, m/s
         40    0.000000000000E+000                                                     T               2         vind (tangential) at blade 2, node 1, m/s
         41    0.000000000000E+000                                                     T               2         vind (axial) at blade 2, node 2, m/s
         42    0.000000000000E+000                                                     T               2         vind (tangential) at blade 2, node 2, m/s
         43    0.000000000000E+000                                                     T               2         vind (axial) at blade 2, node 3, m/s
         44    0.000000000000E+000                                                     T               2         vind (tangential) at blade 2, node 3, m/s
         45    0.000000000000E+000                                                     T               2         vind (axial) at blade 2, node 4, m/s
         46    0.000000000000E+000                                                     T               2         vind (tangential) at blade 2, node 4, m/s
         47   -1.281589031219E+000                                                     T               2         vind (axial) at blade 2, node 5, m/s
         48    8.015245795250E-001                                                     T               2         vind (tangential) at blade 2, node 5, m/s
         49   -1.516625404358E+000                                                     T               2         vind (axial) at blade 2, node 6, m/s
         50    7.054383754730E-001                                                     T               2         vind (tangential) at blade 2, node 6, m/s
         51   -1.504051208496E+000                                                     T               2         vind (axial) at blade 2, node 7, m/s
         52    5.717887282372E-001                                                     T               2         vind (tangential) at blade 2, node 7, m/s
         53   -1.453766345978E+000                                                     T               2         vind (axial) at blade 2, node 8, m/s
         54    4.675969779491E-001                                                     T               2         vind (tangential) at blade 2, node 8, m/s
         55   -1.482565164566E+000                                                     T               2         vind (axial) at blade 2, node 9, m/s
         56    4.048405289650E-001                                                     T               2         vind (tangential) at blade 2, node 9, m/s
         57   -1.497966885567E+000                                                     T               2         vind (axial) at blade 2, node 10, m/s
         58    3.537027239799E-001                                                     T               2         vind (tangential) at blade 2, node 10, m/s
         59   -1.572108745575E+000                                                     T               2         vind (axial) at blade 2, node 11, m/s
         60    3.201397657394E-001                                                     T               2         vind (tangential) at blade 2, node 11, m/s
         61   -1.631485700607E+000                                                     T               2         vind (axial) at blade 2, node 12, m/s
         62    2.891066372395E-001                                                     T               2         vind (tangential) at blade 2, node 12, m/s
         63   -1.544322848320E+000                                                     T               2         vind (axial) at blade 2, node 13, m/s
         64    2.472284287214E-001                                                     T               2         vind (tangential) at blade 2, node 13, m/s
         65   -1.598444819450E+000                                                     T               2         vind (axial) at blade 2, node 14, m/s
         66    2.235755175352E-001                                                     T               2         vind (tangential) at blade 2, node 14, m/s
         67   -1.688431739807E+000                                                     T               2         vind (axial) at blade 2, node 15, m/s
         68    2.063178718090E-001                                                     T               2         vind (tangential) at blade 2, node 15, m/s
         69   -1.864467144012E+000                                                     T               2         vind (axial) at blade 2, node 16, m/s
         70    1.985847055912E-001                                                     T               2         vind (tangential) at blade 2, node 16, m/s
         71   -2.033915758133E+000                                                     T               2         vind (axial) at blade 2, node 17, m/s
         72    1.997536420822E-001                                                     T               2         vind (tangential) at blade 2, node 17, m/s
         73   -2.098256587982E+000                                                     T               2         vind (axial) at blade 2, node 18, m/s
         74    1.991032361984E-001                                                     T               2         vind (tangential) at blade 2, node 18, m/s
         75   -5.244411468506E+000                                                     T               2         vind (axial) at blade 2, node 19, m/s
         76    0.000000000000E+000                                                     T               2         vind (tangential) at blade 2, node 19, m/s
         77   -6.545384407043E+000                                                     T               2         vind (axial) at blade 3, node 1, m/s
         78    0.000000000000E+000                                                     T               2         vind (tangential) at blade 3, node 1, m/s
         79    0.000000000000E+000                                                     T               2         vind (axial) at blade 3, node 2, m/s
         80    0.000000000000E+000                                                     T               2         vind (tangential) at blade 3, node 2, m/s
         81    0.000000000000E+000                                                     T               2         vind (axial) at blade 3, node 3, m/s
         82    0.000000000000E+000                                                     T               2         vind (tangential) at blade 3, node 3, m/s
         83    0.000000000000E+000                                                     T               2         vind (axial) at blade 3, node 4, m/s
         84    0.000000000000E+000                                                     T               2         vind (tangential) at blade 3, node 4, m/s
         85   -1.029457688332E+000                                                     T               2         vind (axial) at blade 3, node 5, m/s
         86    7.894287705421E-001                                                     T               2         vind (tangential) at blade 3, node 5, m/s
         87   -1.050625920296E+000                                                     T               2         vind (axial) at blade 3, node 6, m/s
         88    6.036411523819E-001                                                     T               2         vind (tangential) at blade 3, node 6, m/s
         89   -1.386387109756E+000                                                     T               2         vind (axial) at blade 3, node 7, m/s
         90    5.903556346893E-001                                                     T               2         vind (tangential) at blade 3, node 7, m/s
         91   -1.351399898529E+000                                                     T               2         vind (axial) at blade 3, node 8, m/s
         92    4.794035553932E-001                                                     T               2         vind (tangential) at blade 3, node 8, m/s
         93   -1.388872742653E+000                                                     T               2         vind (axial) at blade 3, node 9, m/s
         94    4.143907427788E-001                                                     T               2         vind (tangential) at blade 3, node 9, m/s
         95   -1.424411773682E+000                                                     T               2         vind (axial) at blade 3, node 10, m/s
         96    3.642259538174E-001                                                     T               2         vind (tangential) at blade 3, node 10, m/s
         97   -1.498250961304E+000                                                     T               2         vind (axial) at blade 3, node 11, m/s
         98    3.299098610878E-001                                                     T               2         vind (tangential) at blade 3, node 11, m/s
         99   -1.555249929428E+000                                                     T               2         vind (axial) at blade 3, node 12, m/s
        100    2.985202968121E-001                                                     T               2         vind (tangential) at blade 3, node 12, m/s
        101   -1.479823231697E+000                                                     T               2         vind (axial) at blade 3, node 13, m/s
        102    2.561131417751E-001                                                     T               2         vind (tangential) at blade 3, node 13, m/s
        103   -1.530259490013E+000                                                     T               2         vind (axial) at blade 3, node 14, m/s
        104    2.327347397804E-001                                                     T               2         vind (tangential) at blade 3, node 14, m/s
        105   -1.631931185722E+000                                                     T               2         vind (axial) at blade 3, node 15, m/s
        106    2.150938510895E-001                                                     T               2         vind (tangential) at blade 3, node 15, m/s
        107   -1.795004606247E+000                                                     T               2         vind (axial) at blade 3, node 16, m/s
        108    2.079530805349E-001                                                     T               2         vind (tangential) at blade 3, node 16, m/s
        109   -2.004697561264E+000                                                     T               2         vind (axial) at blade 3, node 17, m/s
        110    2.082009017467E-001                                                     T               2         vind (tangential) at blade 3, node 17, m/s
        111   -2.175689935684E+000                                                     T               2         vind (axial) at blade 3, node 18, m/s
        112    2.056822180748E-001                                                     T               2         vind (tangential) at blade 3, node 18, m/s
        113   -5.509483337402E+000                                                     T               2         vind (axial) at blade 3, node 19, m/s
        114    0.000000000000E+000                                                     T               2         vind (tangential) at blade 3, node 19, m/s
        115   -2.660298109055E+000                                                     T               2         First time derivative of vind (axial) at blade 1, node 1, m/s/s
        116    0.000000000000E+000                                                     T               2         First time derivative of vind (tangential) at blade 1, node 1, m/s/s
        117    0.000000000000E+000                                                     T               2         First time derivative of vind (axial) at blade 1, node 2, m/s/s
        118    0.000000000000E+000                                                     T               2         First time derivative of vind (tangential) at blade 1, node 2, m/s/s
        119    0.000000000000E+000                                                     T               2         First time derivative of vind (axial) at blade 1, node 3, m/s/s
        120    0.000000000000E+000                                                     T               2         First time derivative of vind (tangential) at blade 1, node 3, m/s/s
        121    0.000000000000E+000                                                     T               2         First time derivative of vind (axial) at blade 1, node 4, m/s/s
        122    0.000000000000E+000                                                     T               2         First time derivative of vind (tangential) at blade 1, node 4, m/s/s
        123   -4.610964655876E-001                                                     T               2         First time derivative of vind (axial) at blade 1, node 5, m/s/s
        124    3.293252289295E-001                                                     T               2         First time derivative of vind (tangential) at blade 1, node 5, m/s/s
        125   -4.616869390011E-001                                                     T               2         First time derivative of vind (axial) at blade 1, node 6, m/s/s
        126    2.568815350533E-001                                                     T               2         First time derivative of vind (tangential) at blade 1, node 6, m/s/s
        127   -5.748990774155E-001                                                     T               2         First time derivative of vind (axial) at blade 1, node 7, m/s/s
        128    2.483384311199E-001                                                     T               2         First time derivative of vind (tangential) at blade 1, node 7, m/s/s
        129   -5.528972744942E-001                                                     T               2         First time derivative of vind (axial) at blade 1, node 8, m/s/s
        130    2.046332657337E-001                                                     T               2         First time derivative of vind (tangential) at blade 1, node 8, m/s/s
        131   -5.404804944992E-001                                                     T               2         First time derivative of vind (axial) at blade 1, node 9, m/s/s
        132    1.741790175438E-001                                                     T               2         First time derivative of vind (tangential) at blade 1, node 9, m/s/s
        133   -5.716530680656E-001                                                     T               2         First time derivative of vind (axial) at blade 1, node 10, m/s/s
        134    1.602160483599E-001                                                     T               2         First time derivative of vind (tangential) at blade 1, node 10, m/s/s
        135   -5.849377512932E-001                                                     T               2         First time derivative of vind (axial) at blade 1, node 11, m/s/s
        136    1.453651934862E-001                                                     T               2         First time derivative of vind (tangential) at blade 1, node 11, m/s/s
        137   -6.034335494041E-001                                                     T               2         First time derivative of vind (axial) at blade 1, node 12, m/s/s
        138    1.340298503637E-001                                                     T               2         First time derivative of vind (tangential) at blade 1, node 12, m/s/s
        139   -5.777498483658E-001                                                     T               2         First time derivative of vind (axial) at blade 1, node 13, m/s/s
        140    1.180141940713E-001                                                     T               2         First time derivative of vind (tangential) at blade 1, node 13, m/s/s
        141   -5.921248197556E-001                                                     T               2         First time derivative of vind (axial) at blade 1, node 14, m/s/s
        142    1.095745861530E-001                                                     T               2         First time derivative of vind (tangential) at blade 1, node 14, m/s/s
        143   -6.260722875595E-001                                                     T               2         First time derivative of vind (axial) at blade 1, node 15, m/s/s
        144    1.043163910508E-001                                                     T               2         First time derivative of vind (tangential) at blade 1, node 15, m/s/s
        145   -6.887055039406E-001                                                     T               2         First time derivative of vind (axial) at blade 1, node 16, m/s/s
        146    1.042784228921E-001                                                     T               2         First time derivative of vind (tangential) at blade 1, node 16, m/s/s
        147   -7.779865264893E-001                                                     T               2         First time derivative of vind (axial) at blade 1, node 17, m/s/s
        148    1.080646291375E-001                                                     T               2         First time derivative of vind (tangential) at blade 1, node 17, m/s/s
        149   -8.616244196892E-001                                                     T               2         First time derivative of vind (axial) at blade 1, node 18, m/s/s
        150    1.109923645854E-001                                                     T               2         First time derivative of vind (tangential) at blade 1, node 18, m/s/s
        151   -2.741822004318E+000                                                     T               2         First time derivative of vind (axial) at blade 1, node 19, m/s/s
        152    0.000000000000E+000                                                     T               2         First time derivative of vind (tangential) at blade 1, node 19, m/s/s
        153   -2.602669715881E+000                                                     T               2         First time derivative of vind (axial) at blade 2, node 1, m/s/s
        154    0.000000000000E+000                                                     T               2         First time derivative of vind (tangential) at blade 2, node 1, m/s/s
        155    0.000000000000E+000                                                     T               2         First time derivative of vind (axial) at blade 2, node 2, m/s/s
        156    0.000000000000E+000                                                     T               2         First time derivative of vind (tangential) at blade 2, node 2, m/s/s
        157    0.000000000000E+000                                                     T               2         First time derivative of vind (axial) at blade 2, node 3, m/s/s
        158    0.000000000000E+000                                                     T               2         First time derivative of vind (tangential) at blade 2, node 3, m/s/s
        159    0.000000000000E+000                                                     T               2         First time derivative of vind (axial) at blade 2, node 4, m/s/s
        160    0.000000000000E+000                                                     T               2         First time derivative of vind (tangential) at blade 2, node 4, m/s/s
        161   -5.114338994026E-001                                                     T               2         First time derivative of vind (axial) at blade 2, node 5, m/s/s
        162    3.218272626400E-001                                                     T               2         First time derivative of vind (tangential) at blade 2, node 5, m/s/s
        163   -6.043023467064E-001                                                     T               2         First time derivative of vind (axial) at blade 2, node 6, m/s/s
        164    2.829876244068E-001                                                     T               2         First time derivative of vind (tangential) at blade 2, node 6, m/s/s
        165   -6.022092103958E-001                                                     T               2         First time derivative of vind (axial) at blade 2, node 7, m/s/s
        166    2.301797419786E-001                                                     T               2         First time derivative of vind (tangential) at blade 2, node 7, m/s/s
        167   -5.814466476440E-001                                                     T               2         First time derivative of vind (axial) at blade 2, node 8, m/s/s
        168    1.883039027452E-001                                                     T               2         First time derivative of vind (tangential) at blade 2, node 8, m/s/s
        169   -5.926943421364E-001                                                     T               2         First time derivative of vind (axial) at blade 2, node 9, m/s/s
        170    1.632754951715E-001                                                     T               2         First time derivative of vind (tangential) at blade 2, node 9, m/s/s
        171   -5.989915132523E-001                                                     T               2         First time derivative of vind (axial) at blade 2, node 10, m/s/s
        172    1.430539637804E-001                                                     T               2         First time derivative of vind (tangential) at blade 2, node 10, m/s/s
        173   -6.275683045387E-001                                                     T               2         First time derivative of vind (axial) at blade 2, node 11, m/s/s
        174    1.298855841160E-001                                                     T               2         First time derivative of vind (tangential) at blade 2, node 11, m/s/s
        175   -6.497110128403E-001                                                     T               2         First time derivative of vind (axial) at blade 2, node 12, m/s/s
        176    1.178886741400E-001                                                     T               2         First time derivative of vind (tangential) at blade 2, node 12, m/s/s
        177   -6.139245033264E-001                                                     T               2         First time derivative of vind (axial) at blade 2, node 13, m/s/s