
Linearized model: Predictions were generated on 03-Jul-2025 at 08:26:12 using OpenFAST, compiled on Jun 19 2025 at 03:54:01 as a 64-bit application using single precision at commit v4.1.0
 linked with  NWTC Subroutine Library; ElastoDyn; InflowWind; AeroDyn; ServoDyn

Description from the FAST input file: NREL                   MW          - Baseline Wind Turbine (Onshore), Linearization with AeroDyn + ED

Simulation information:
   Simulation time:                     1.0000 s
   Rotor Speed:                         0.6237 rad/s
   Azimuth:                             0.6070 rad
   Wind Speed:                          6.6667 m/s
   Number of continuous states:       260
   Number of discrete states:           0
   Number of constraint states:         0
   Number of inputs:                   69
   Number of outputs:                  39
   Jacobians included in this file?    No

Order of continuous states:
   Row/Column Operating Point                                                   Rotating Frame? Derivative Order Description
   ---------- ---------------                                                   --------------- ---------------- -----------
          1    1.240137889981E-001                                                     F               2         ED 1st tower fore-aft bending mode DOF (internal DOF index = DOF_TFA1), m
          2    9.970165556297E-004                                                     F               2         ED 1st tower side-to-side bending mode DOF (internal DOF index = DOF_TSS1), m
          3    1.931381484610E-005                                                     F               2         ED 2nd tower fore-aft bending mode DOF (internal DOF index = DOF_TFA2), m
          4    2.798737841658E-005                                                     F               2         ED 2nd tower side-to-side bending mode DOF (internal DOF index = DOF_TSS2), m
          5    6.058673170628E-005                                                     F               2         ED Nacelle yaw DOF (internal DOF index = DOF_Yaw), rad
          6    5.319212436676E+000                                                     F               2         ED Variable speed generator DOF (internal DOF index = DOF_GeAz), rad
          7    1.823467755457E-004                                                     F               2         ED Drivetrain rotational-flexibility DOF (internal DOF index = DOF_DrTr), rad
          8    2.285801410675E+000                                                     T               2         ED 1st flapwise bending-mode DOF of blade 1 (internal DOF index = DOF_BF(1,1)), m
          9    1.969683527946E+000                                                     T               2         ED 1st flapwise bending-mode DOF of blade 2 (internal DOF index = DOF_BF(2,1)), m
         10    1.924932360649E+000                                                     T               2         ED 1st flapwise bending-mode DOF of blade 3 (internal DOF index = DOF_BF(3,1)), m
         11   -1.375750750303E-001                                                     T               2         ED 1st edgewise bending-mode DOF of blade 1 (internal DOF index = DOF_BE(1,1)), m
         12    2.180916517973E-001                                                     T               2         ED 1st edgewise bending-mode DOF of blade 2 (internal DOF index = DOF_BE(2,1)), m
         13    2.173261195421E-001                                                     T               2         ED 1st edgewise bending-mode DOF of blade 3 (internal DOF index = DOF_BE(3,1)), m
         14    2.066144905984E-002                                                     T               2         ED 2nd flapwise bending-mode DOF of blade 1 (internal DOF index = DOF_BF(1,2)), m
         15    5.534832924604E-002                                                     T               2         ED 2nd flapwise bending-mode DOF of blade 2 (internal DOF index = DOF_BF(2,2)), m
         16    6.560258567333E-002                                                     T               2         ED 2nd flapwise bending-mode DOF of blade 3 (internal DOF index = DOF_BF(3,2)), m
         17    2.811694145203E-001                                                     F               2         ED First time derivative of 1st tower fore-aft bending mode DOF (internal DOF index = DOF_TFA1), m/s
         18    1.817538775504E-002                                                     F               2         ED First time derivative of 1st tower side-to-side bending mode DOF (internal DOF index = DOF_TSS1), m/s
         19    1.567370927660E-004                                                     F               2         ED First time derivative of 2nd tower fore-aft bending mode DOF (internal DOF index = DOF_TFA2), m/s
         20   -1.634345971979E-004                                                     F               2         ED First time derivative of 2nd tower side-to-side bending mode DOF (internal DOF index = DOF_TSS2), m/s
         21   -3.451365337241E-004                                                     F               2         ED First time derivative of Nacelle yaw DOF (internal DOF index = DOF_Yaw), rad/s
         22    6.239074468613E-001                                                     F               2         ED First time derivative of Variable speed generator DOF (internal DOF index = DOF_GeAz), rad/s
         23   -2.407210122328E-004                                                     F               2         ED First time derivative of Drivetrain rotational-flexibility DOF (internal DOF index = DOF_DrTr), rad/s
         24   -1.731110811234E+000                                                     T               2         ED First time derivative of 1st flapwise bending-mode DOF of blade 1 (internal DOF index = DOF_BF(1,1)), m/s
         25   -2.161661386490E+000                                                     T               2         ED First time derivative of 1st flapwise bending-mode DOF of blade 2 (internal DOF index = DOF_BF(2,1)), m/s
         26   -1.479920268059E+000                                                     T               2         ED First time derivative of 1st flapwise bending-mode DOF of blade 3 (internal DOF index = DOF_BF(3,1)), m/s
         27   -8.205008506775E-002                                                     T               2         ED First time derivative of 1st edgewise bending-mode DOF of blade 1 (internal DOF index = DOF_BE(1,1)), m/s
         28   -1.273446440697E+000                                                     T               2         ED First time derivative of 1st edgewise bending-mode DOF of blade 2 (internal DOF index = DOF_BE(2,1)), m/s
         29    9.571598172188E-001                                                     T               2         ED First time derivative of 1st edgewise bending-mode DOF of blade 3 (internal DOF index = DOF_BE(3,1)), m/s
         30    1.170892734081E-002                                                     T               2         ED First time derivative of 2nd flapwise bending-mode DOF of blade 1 (internal DOF index = DOF_BF(1,2)), m/s
         31   -1.130642518401E-001                                                     T               2         ED First time derivative of 2nd flapwise bending-mode DOF of blade 2 (internal DOF index = DOF_BF(2,2)), m/s
         32    8.722240477800E-002                                                     T               2         ED First time derivative of 2nd flapwise bending-mode DOF of blade 3 (internal DOF index = DOF_BF(3,2)), m/s
         33   -6.636320590973E+000                                                     T               2         AD vind (axial) at blade 1, node 1, m/s
         34    0.000000000000E+000                                                     T               2         AD vind (tangential) at blade 1, node 1, m/s
         35    0.000000000000E+000                                                     T               2         AD vind (axial) at blade 1, node 2, m/s
         36    0.000000000000E+000                                                     T               2         AD vind (tangential) at blade 1, node 2, m/s
         37    0.000000000000E+000                                                     T               2         AD vind (axial) at blade 1, node 3, m/s
         38    0.000000000000E+000                                                     T               2         AD vind (tangential) at blade 1, node 3, m/s
         39    0.000000000000E+000                                                     T               2         AD vind (axial) at blade 1, node 4, m/s
         40    0.000000000000E+000                                                     T               2         AD vind (tangential) at blade 1, node 4, m/s
         41   -1.160723328590E+000                                                     T               2         AD vind (axial) at blade 1, node 5, m/s
         42    8.215904831886E-001                                                     T               2         AD vind (tangential) at blade 1, node 5, m/s
         43   -1.182680487633E+000                                                     T               2         AD vind (axial) at blade 1, node 6, m/s
         44    6.478273868561E-001                                                     T               2         AD vind (tangential) at blade 1, node 6, m/s
         45   -1.445633172989E+000                                                     T               2         AD vind (axial) at blade 1, node 7, m/s
         46    6.177574992180E-001                                                     T               2         AD vind (tangential) at blade 1, node 7, m/s
         47   -1.392019033432E+000                                                     T               2         AD vind (axial) at blade 1, node 8, m/s
         48    5.086753368378E-001                                                     T               2         AD vind (tangential) at blade 1, node 8, m/s
         49   -1.371051192284E+000                                                     T               2         AD vind (axial) at blade 1, node 9, m/s
         50    4.341898560524E-001                                                     T               2         AD vind (tangential) at blade 1, node 9, m/s
         51   -1.442337632179E+000                                                     T               2         AD vind (axial) at blade 1, node 10, m/s
         52    3.964948356152E-001                                                     T               2         AD vind (tangential) at blade 1, node 10, m/s
         53   -1.483485102654E+000                                                     T               2         AD vind (axial) at blade 1, node 11, m/s
         54    3.591918349266E-001                                                     T               2         AD vind (tangential) at blade 1, node 11, m/s
         55   -1.533993244171E+000                                                     T               2         AD vind (axial) at blade 1, node 12, m/s
         56    3.293307423592E-001                                                     T               2         AD vind (tangential) at blade 1, node 12, m/s
         57   -1.469622373581E+000                                                     T               2         AD vind (axial) at blade 1, node 13, m/s
         58    2.874824106693E-001                                                     T               2         AD vind (tangential) at blade 1, node 13, m/s
         59   -1.513102293015E+000                                                     T               2         AD vind (axial) at blade 1, node 14, m/s
         60    2.640383243561E-001                                                     T               2         AD vind (tangential) at blade 1, node 14, m/s
         61   -1.611044883728E+000                                                     T               2         AD vind (axial) at blade 1, node 15, m/s
         62    2.474191784859E-001                                                     T               2         AD vind (tangential) at blade 1, node 15, m/s
         63   -1.776339769363E+000                                                     T               2         AD vind (axial) at blade 1, node 16, m/s
         64    2.431538254023E-001                                                     T               2         AD vind (tangential) at blade 1, node 16, m/s
         65   -1.992081522942E+000                                                     T               2         AD vind (axial) at blade 1, node 17, m/s
         66    2.481128424406E-001                                                     T               2         AD vind (tangential) at blade 1, node 17, m/s
         67   -2.158869504929E+000                                                     T               2         AD vind (axial) at blade 1, node 18, m/s
         68    2.512356042862E-001                                                     T               2         AD vind (tangential) at blade 1, node 18, m/s
         69   -6.357259750366E+000                                                     T               2         AD vind (axial) at blade 1, node 19, m/s
         70    0.000000000000E+000                                                     T               2         AD vind (tangential) at blade 1, node 19, m/s
         71   -6.476583003998E+000                                                     T               2         AD vind (axial) at blade 2, node 1, m/s
         72    0.000000000000E+000                                                     T               2         AD vind (tangential) at blade 2, node 1, m/s
         73    0.000000000000E+000                                                     T               2         AD vind (axial) at blade 2, node 2, m/s
         74    0.000000000000E+000                                                     T               2         AD vind (tangential) at blade 2, node 2, m/s
         75    0.000000000000E+000                                                     T               2         AD vind (axial) at blade 2, node 3, m/s
         76    0.000000000000E+000                                                     T               2         AD vind (tangential) at blade 2, node 3, m/s
         77    0.000000000000E+000                                                     T               2         AD vind (axial) at blade 2, node 4, m/s
         78    0.000000000000E+000                                                     T               2         AD vind (tangential) at blade 2, node 4, m/s
         79   -1.281589031219E+000                                                     T               2         AD vind (axial) at blade 2, node 5, m/s
         80    8.015245795250E-001                                                     T               2         AD vind (tangential) at blade 2, node 5, m/s
         81   -1.516625404358E+000                                                     T               2         AD vind (axial) at blade 2, node 6, m/s
         82    7.054383754730E-001                                                     T               2         AD vind (tangential) at blade 2, node 6, m/s
         83   -1.504051208496E+000                                                     T               2         AD vind (axial) at blade 2, node 7, m/s
         84    5.717887282372E-001                                                     T               2         AD vind (tangential) at blade 2, node 7, m/s
         85   -1.453766345978E+000                                                     T               2         AD vind (axial) at blade 2, node 8, m/s
         86    4.675969779491E-001                                                     T               2         AD vind (tangential) at blade 2, node 8, m/s
         87   -1.482565164566E+000                                                     T               2         AD vind (axial) at blade 2, node 9, m/s
         88    4.048405289650E-001                                                     T               2         AD vind (tangential) at blade 2, node 9, m/s
         89   -1.497966885567E+000                                                     T               2         AD vind (axial) at blade 2, node 10, m/s
         90    3.537027239799E-001                                                     T               2         AD vind (tangential) at blade 2, node 10, m/s
         91   -1.572108745575E+000                                                     T               2         AD vind (axial) at blade 2, node 11, m/s
         92    3.201397657394E-001                                                     T               2         AD vind (tangential) at blade 2, node 11, m/s
         93   -1.631485700607E+000                                                     T               2         AD vind (axial) at blade 2, node 12, m/s
         94    2.891066372395E-001                                                     T               2         AD vind (tangential) at blade 2, node 12, m/s
         95   -1.544322848320E+000                                                     T               2         AD vind (axial) at blade 2, node 13, m/s
         96    2.472284287214E-001                                                     T               2         AD vind (tangential) at blade 2, node 13, m/s
         97   -1.598444819450E+000                                                     T               2         AD vind (axial) at blade 2, node 14, m/s
         98    2.235755175352E-001                                                     T               2         AD vind (tangential) at blade 2, node 14, m/s
         99   -1.688431739807E+000                                                     T               2         AD vind (axial) at blade 2, node 15, m/s
        100    2.063178718090E-001                                                     T               2         AD vind (tangential) at blade 2, node 15, m/s
        101   -1.864467144012E+000                                                     T               2         AD vind (axial) at blade 2, node 16, m/s
        102    1.985847055912E-001                                                     T               2         AD vind (tangential) at blade 2, node 16, m/s
        103   -2.033915758133E+000                                                     T               2         AD vind (axial) at blade 2, node 17, m/s
        104    1.997536420822E-001                                                     T               2         AD vind (tangential) at blade 2, node 17, m/s
        105   -2.098256587982E+000                                                     T               2         AD vind (axial) at blade 2, node 18, m/s
        106    1.991032361984E-001                                                     T               2         AD vind (tangential) at blade 2, node 18, m/s
        107   -5.244411468506E+000                                                     T               2         AD vind (axial) at blade 2, node 19, m/s
        108    0.000000000000E+000                                                     T               2         AD vind (tangential) at blade 2, node 19, m/s
        109   -6.545384407043E+000                                                     T               2         AD vind (axial) at blade 3, node 1, m/s
        110    0.000000000000E+000                                                     T               2         AD vind (tangential) at blade 3, node 1, m/s
        111    0.000000000000E+000                                                     T               2         AD vind (axial) at blade 3, node 2, m/s
        112    0.000000000000E+000                                                     T               2         AD vind (tangential) at blade 3, node 2, m/s
        113    0.000000000000E+000                                                     T               2         AD vind (axial) at blade 3, node 3, m/s
        114    0.000000000000E+000                                                     T               2         AD vind (tangential) at blade 3, node 3, m/s
        115    0.000000000000E+000                                                     T               2         AD vind (axial) at blade 3, node 4, m/s
        116    0.000000000000E+000                                                     T               2         AD vind (tangential) at blade 3, node 4, m/s
        117   -1.029457688332E+000                                                     T               2         AD vind (axial) at blade 3, node 5, m/s
        118    7.894287705421E-001                                                     T               2         AD vind (tangential) at blade 3, node 5, m/s
        119   -1.050625920296E+000                                                     T               2         AD vind (axial) at blade 3, node 6, m/s
        120    6.036411523819E-001                                                     T               2         AD vind (tangential) at blade 3, node 6, m/s
        121   -1.386387109756E+000                                                     T               2         AD vind (axial) at blade 3, node 7, m/s
        122    5.903556346893E-001                                                     T               2         AD vind (tangential) at blade 3, node 7, m/s
        123   -1.351399898529E+000                                                     T               2         AD vind (axial) at blade 3, node 8, m/s
        124    4.794035553932E-001                                                     T               2         AD vind (tangential) at blade 3, node 8, m/s
        125   -1.388872742653E+000                                                     T               2         AD vind (axial) at blade 3, node 9, m/s
        126    4.143907427788E-001                                                     T               2         AD vind (tangential) at blade 3, node 9, m/s
        127   -1.424411773682E+000                                                     T               2         AD vind (axial) at blade 3, node 10, m/s
        128    3.642259538174E-001                                                     T               2         AD vind (tangential) at blade 3, node 10, m/s
        129   -1.498250961304E+000                                                     T               2         AD vind (axial) at blade 3, node 11, m/s
        130    3.299098610878E-001                                                     T               2         AD vind (tangential) at blade 3, node 11, m/s
        131   -1.555249929428E+000                                                     T               2         AD vind (axial) at blade 3, node 12, m/s
        132    2.985202968121E-001                                                     T               2         AD vind (tangential) at blade 3, node 12, m/s
        133   -1.479823231697E+000                                                     T               2         AD vind (axial) at blade 3, node 13, m/s
        134    2.561131417751E-001                                                     T               2         AD vind (tangential) at blade 3, node 13, m/s
        135   -1.530259490013E+000                                                     T               2         AD vind (axial) at blade 3, node 14, m/s
        136    2.327347397804E-001                                                     T               2         AD vind (tangential) at blade 3, node 14, m/s
        137   -1.631931185722E+000                                                     T               2         AD vind (axial) at blade 3, node 15, m/s
        138    2.150938510895E-001                                                     T               2         AD vind (tangential) at blade 3, node 15, m/s
        139   -1.795004606247E+000                                                     T               2         AD vind (axial) at blade 3, node 16, m/s
        140    2.079530805349E-001                                                     T               2         AD vind (tangential) at blade 3, node 16, m/s
        141   -2.004697561264E+000                                                     T               2         AD vind (axial) at blade 3, node 17, m/s
        142    2.082009017467E-001                                                     T               2         AD vind (tangential) at blade 3, node 17, m/s
        143   -2.175689935684E+000                                                     T               2         AD vind (axial) at blade 3, node 18, m/s
        144    2.056822180748E-001                                                     T               2         AD vind (tangential) at blade 3, node 18, m/s
        145   -5.509483337402E+000                                                     T               2         AD vind (axial) at blade 3, node 19, m/s
        146    0.000000000000E+000                                                     T               2         AD vind (tangential) at blade 3, node 19, m/s
        147   -2.660298109055E+000                                                     T               2         AD First time derivative of vind (axial) at blade 1, node 1, m/s/s
        148    0.000000000000E+000                                                     T               2         AD First time derivative of vind (tangential) at blade 1, node 1, m/s/s
        149    0.000000000000E+000                                                     T               2         AD First time derivative of vind (axial) at blade 1, node 2, m/s/s
        150    0.000000000000E+000                                                     T               2         AD First time derivative of vind (tangential) at blade 1, node 2, m/s/s
        151    0.000000000000E+000                                                     T               2         AD First time derivative of vind (axial) at blade 1, node 3, m/s/s
        152    0.000000000000E+000                                                     T               2         AD First time derivative of vind (tangential) at blade 1, node 3, m/s/s
        153    0.000000000000E+000                                                     T               2         AD First time derivative of vind (axial) at blade 1, node 4, m/s/s
        154    0.000000000000E+000                                                     T               2         AD First time derivative of vind (tangential) at blade 1, node 4, m/s/s
        155   -4.610964655876E-001                                                     T               2         AD First time derivative of vind (axial) at blade 1, node 5, m/s/s
        156    3.293252289295E-001                                                     T               2         AD First time derivative of vind (tangential) at blade 1, node 5, m/s/s
        157   -4.616869390011E-001                                                     T               2         AD First time derivative of vind (axial) at blade 1, node 6, m/s/s
        158    2.568815350533E-001                                                     T               2         AD First time derivative of vind (tangential) at blade 1, node 6, m/s/s
        159   -5.748990774155E-001                                                     T               2         AD First time derivative of vind (axial) at blade 1, node 7, m/s/s
        160    2.483384311199E-001                                                     T               2         AD First time derivative of vind (tangential) at blade 1, node 7, m/s/s
        161   -5.528972744942E-001                                                     T               2         AD First time derivative of vind (axial) at blade 1, node 8, m/s/s
        162    2.046332657337E-001                                                     T               2         AD First time derivative of vind (tangential) at blade 1, node 8, m/s/s
        163   -5.404804944992E-001                                                     T               2         AD First time derivative of vind (axial) at blade 1, node 9, m/s/s
        164    1.741790175438E-001                                                     T               2         AD First time derivative of vind (tangential) at blade 1, node 9, m/s/s
        165   -5.716530680656E-001                                                     T               2         AD First time derivative of vind (axial) at blade 1, node 10, m/s/s
        166    1.602160483599E-001                                                     T               2         AD First time derivative of vind (tangential) at blade 1, node 10, m/s/s
        167   -5.849377512932E-001                                                     T               2         AD First time derivative of vind (axial) at blade 1, node 11, m/s/s
        168    1.453651934862E-001                                                     T               2         AD First time derivative of vind (tangential) at blade 1, node 11, m/s/s
        169   -6.034335494041E-001                                                     T               2         AD First time derivative of vind (axial) at blade 1, node 12, m/s/s
        170    1.340298503637E-001                                                     T               2         AD First time derivative of vind (tangential) at blade 1, node 12, m/s/s