
Linearized model: Predictions were generated on 03-Jul-2025 at 08:26:12 using OpenFAST, compiled on Jun 19 2025 at 03:54:01 as a 64-bit application using single precision at commit v4.1.0
 linked with  NWTC Subroutine Library; ElastoDyn; InflowWind; AeroDyn; ServoDyn

Description from the FAST input file: NREL                   MW          - Baseline Wind Turbine (Onshore), Linearization with AeroDyn + ED

Simulation information:
   Simulation time:                     1.0000 s
   Rotor Speed:                         0.9734 rad/s
   Azimuth:                             0.9476 rad
   Wind Speed:                          9.3333 m/s
   Number of continuous states:       260
   Number of discrete states:           0
   Number of constraint states:         0
   Number of inputs:                   69
   Number of outputs:                  39
   Jacobians included in this file?    No

Order of continuous states:
   Row/Column Operating Point                                                   Rotating Frame? Derivative Order Description
   ---------- ---------------                                                   --------------- ---------------- -----------
          1    2.609986066818E-001                                                     F               2         ED 1st tower fore-aft bending mode DOF (internal DOF index = DOF_TFA1), m
          2    1.858216593973E-003                                                     F               2         ED 1st tower side-to-side bending mode DOF (internal DOF index = DOF_TSS1), m
          3    6.082574691391E-005                                                     F               2         ED 2nd tower fore-aft bending mode DOF (internal DOF index = DOF_TFA2), m
          4    3.452909004409E-005                                                     F               2         ED 2nd tower side-to-side bending mode DOF (internal DOF index = DOF_TSS2), m
          5    9.887775377138E-005                                                     F               2         ED Nacelle yaw DOF (internal DOF index = DOF_Yaw), rad
          6    5.659711837769E+000                                                     F               2         ED Variable speed generator DOF (internal DOF index = DOF_GeAz), rad
          7    2.462436968926E-004                                                     F               2         ED Drivetrain rotational-flexibility DOF (internal DOF index = DOF_DrTr), rad
          8    4.176190376282E+000                                                     T               2         ED 1st flapwise bending-mode DOF of blade 1 (internal DOF index = DOF_BF(1,1)), m
          9    3.583524703979E+000                                                     T               2         ED 1st flapwise bending-mode DOF of blade 2 (internal DOF index = DOF_BF(2,1)), m
         10    3.708947896957E+000                                                     T               2         ED 1st flapwise bending-mode DOF of blade 3 (internal DOF index = DOF_BF(3,1)), m
         11   -1.302744001150E-001                                                     T               2         ED 1st edgewise bending-mode DOF of blade 1 (internal DOF index = DOF_BE(1,1)), m
         12    4.451055824757E-001                                                     T               2         ED 1st edgewise bending-mode DOF of blade 2 (internal DOF index = DOF_BE(2,1)), m
         13    2.653557360172E-001                                                     T               2         ED 1st edgewise bending-mode DOF of blade 3 (internal DOF index = DOF_BE(3,1)), m
         14    3.056432865560E-002                                                     T               2         ED 2nd flapwise bending-mode DOF of blade 1 (internal DOF index = DOF_BF(1,2)), m
         15    1.206909939647E-001                                                     T               2         ED 2nd flapwise bending-mode DOF of blade 2 (internal DOF index = DOF_BF(2,2)), m
         16    9.820989519358E-002                                                     T               2         ED 2nd flapwise bending-mode DOF of blade 3 (internal DOF index = DOF_BF(3,2)), m
         17    5.399919152260E-001                                                     F               2         ED First time derivative of 1st tower fore-aft bending mode DOF (internal DOF index = DOF_TFA1), m/s
         18    2.622606419027E-002                                                     F               2         ED First time derivative of 1st tower side-to-side bending mode DOF (internal DOF index = DOF_TSS1), m/s
         19    2.179224393331E-004                                                     F               2         ED First time derivative of 2nd tower fore-aft bending mode DOF (internal DOF index = DOF_TFA2), m/s
         20   -1.762545725796E-004                                                     F               2         ED First time derivative of 2nd tower side-to-side bending mode DOF (internal DOF index = DOF_TSS2), m/s
         21   -2.592775272205E-004                                                     F               2         ED First time derivative of Nacelle yaw DOF (internal DOF index = DOF_Yaw), rad/s
         22    9.730365872383E-001                                                     F               2         ED First time derivative of Variable speed generator DOF (internal DOF index = DOF_GeAz), rad/s
         23    3.558336757123E-004                                                     F               2         ED First time derivative of Drivetrain rotational-flexibility DOF (internal DOF index = DOF_DrTr), rad/s
         24   -1.256233572960E+000                                                     T               2         ED First time derivative of 1st flapwise bending-mode DOF of blade 1 (internal DOF index = DOF_BF(1,1)), m/s
         25   -1.897365570068E+000                                                     T               2         ED First time derivative of 1st flapwise bending-mode DOF of blade 2 (internal DOF index = DOF_BF(2,1)), m/s
         26   -1.227599620819E+000                                                     T               2         ED First time derivative of 1st flapwise bending-mode DOF of blade 3 (internal DOF index = DOF_BF(3,1)), m/s
         27    6.085704080760E-003                                                     T               2         ED First time derivative of 1st edgewise bending-mode DOF of blade 1 (internal DOF index = DOF_BE(1,1)), m/s
         28   -1.278309941292E+000                                                     T               2         ED First time derivative of 1st edgewise bending-mode DOF of blade 2 (internal DOF index = DOF_BE(2,1)), m/s
         29    6.435472369194E-001                                                     T               2         ED First time derivative of 1st edgewise bending-mode DOF of blade 3 (internal DOF index = DOF_BE(3,1)), m/s
         30    3.667755797505E-002                                                     T               2         ED First time derivative of 2nd flapwise bending-mode DOF of blade 1 (internal DOF index = DOF_BF(1,2)), m/s
         31   -1.275289654732E-001                                                     T               2         ED First time derivative of 2nd flapwise bending-mode DOF of blade 2 (internal DOF index = DOF_BF(2,2)), m/s
         32    3.546983376145E-002                                                     T               2         ED First time derivative of 2nd flapwise bending-mode DOF of blade 3 (internal DOF index = DOF_BF(3,2)), m/s
         33   -9.258275985718E+000                                                     T               2         AD vind (axial) at blade 1, node 1, m/s
         34    0.000000000000E+000                                                     T               2         AD vind (tangential) at blade 1, node 1, m/s
         35    0.000000000000E+000                                                     T               2         AD vind (axial) at blade 1, node 2, m/s
         36    0.000000000000E+000                                                     T               2         AD vind (tangential) at blade 1, node 2, m/s
         37    0.000000000000E+000                                                     T               2         AD vind (axial) at blade 1, node 3, m/s
         38    0.000000000000E+000                                                     T               2         AD vind (tangential) at blade 1, node 3, m/s
         39    0.000000000000E+000                                                     T               2         AD vind (axial) at blade 1, node 4, m/s
         40    0.000000000000E+000                                                     T               2         AD vind (tangential) at blade 1, node 4, m/s
         41   -1.873092770576E+000                                                     T               2         AD vind (axial) at blade 1, node 5, m/s
         42    1.154246449471E+000                                                     T               2         AD vind (tangential) at blade 1, node 5, m/s
         43   -2.269305467606E+000                                                     T               2         AD vind (axial) at blade 1, node 6, m/s
         44    1.025739431381E+000                                                     T               2         AD vind (tangential) at blade 1, node 6, m/s
         45   -2.242489099503E+000                                                     T               2         AD vind (axial) at blade 1, node 7, m/s
         46    8.335912227631E-001                                                     T               2         AD vind (tangential) at blade 1, node 7, m/s
         47   -2.189783573151E+000                                                     T               2         AD vind (axial) at blade 1, node 8, m/s
         48    6.917507052422E-001                                                     T               2         AD vind (tangential) at blade 1, node 8, m/s
         49   -2.256297111511E+000                                                     T               2         AD vind (axial) at blade 1, node 9, m/s
         50    6.081628203392E-001                                                     T               2         AD vind (tangential) at blade 1, node 9, m/s
         51   -2.297955513000E+000                                                     T               2         AD vind (axial) at blade 1, node 10, m/s
         52    5.391820073128E-001                                                     T               2         AD vind (tangential) at blade 1, node 10, m/s
         53   -2.418397665024E+000                                                     T               2         AD vind (axial) at blade 1, node 11, m/s
         54    4.928418397903E-001                                                     T               2         AD vind (tangential) at blade 1, node 11, m/s
         55   -2.516352891922E+000                                                     T               2         AD vind (axial) at blade 1, node 12, m/s
         56    4.491103291512E-001                                                     T               2         AD vind (tangential) at blade 1, node 12, m/s
         57   -2.384150028229E+000                                                     T               2         AD vind (axial) at blade 1, node 13, m/s
         58    3.863238692284E-001                                                     T               2         AD vind (tangential) at blade 1, node 13, m/s
         59   -2.473957777023E+000                                                     T               2         AD vind (axial) at blade 1, node 14, m/s
         60    3.509039282799E-001                                                     T               2         AD vind (tangential) at blade 1, node 14, m/s
         61   -2.627351522446E+000                                                     T               2         AD vind (axial) at blade 1, node 15, m/s
         62    3.241412639618E-001                                                     T               2         AD vind (tangential) at blade 1, node 15, m/s
         63   -2.888156890869E+000                                                     T               2         AD vind (axial) at blade 1, node 16, m/s
         64    3.122176527977E-001                                                     T               2         AD vind (tangential) at blade 1, node 16, m/s
         65   -3.214059114456E+000                                                     T               2         AD vind (axial) at blade 1, node 17, m/s
         66    3.111546039581E-001                                                     T               2         AD vind (tangential) at blade 1, node 17, m/s
         67   -3.348216772079E+000                                                     T               2         AD vind (axial) at blade 1, node 18, m/s
         68    3.074085712433E-001                                                     T               2         AD vind (tangential) at blade 1, node 18, m/s
         69   -8.178907394409E+000                                                     T               2         AD vind (axial) at blade 1, node 19, m/s
         70    0.000000000000E+000                                                     T               2         AD vind (tangential) at blade 1, node 19, m/s
         71   -8.998870849609E+000                                                     T               2         AD vind (axial) at blade 2, node 1, m/s
         72    0.000000000000E+000                                                     T               2         AD vind (tangential) at blade 2, node 1, m/s
         73    0.000000000000E+000                                                     T               2         AD vind (axial) at blade 2, node 2, m/s
         74    0.000000000000E+000                                                     T               2         AD vind (tangential) at blade 2, node 2, m/s
         75    0.000000000000E+000                                                     T               2         AD vind (axial) at blade 2, node 3, m/s
         76    0.000000000000E+000                                                     T               2         AD vind (tangential) at blade 2, node 3, m/s
         77    0.000000000000E+000                                                     T               2         AD vind (axial) at blade 2, node 4, m/s
         78    0.000000000000E+000                                                     T               2         AD vind (tangential) at blade 2, node 4, m/s
         79   -2.017488241196E+000                                                     T               2         AD vind (axial) at blade 2, node 5, m/s
         80    1.104215025902E+000                                                     T               2         AD vind (tangential) at blade 2, node 5, m/s
         81   -2.349887847900E+000                                                     T               2         AD vind (axial) at blade 2, node 6, m/s
         82    9.513111114502E-001                                                     T               2         AD vind (tangential) at blade 2, node 6, m/s
         83   -2.193423032761E+000                                                     T               2         AD vind (axial) at blade 2, node 7, m/s
         84    7.388599514961E-001                                                     T               2         AD vind (tangential) at blade 2, node 7, m/s
         85   -2.151991844177E+000                                                     T               2         AD vind (axial) at blade 2, node 8, m/s
         86    6.088636517525E-001                                                     T               2         AD vind (tangential) at blade 2, node 8, m/s
         87   -2.260426998138E+000                                                     T               2         AD vind (axial) at blade 2, node 9, m/s
         88    5.352551937103E-001                                                     T               2         AD vind (tangential) at blade 2, node 9, m/s
         89   -2.292197942734E+000                                                     T               2         AD vind (axial) at blade 2, node 10, m/s
         90    4.670388996601E-001                                                     T               2         AD vind (tangential) at blade 2, node 10, m/s
         91   -2.457993268967E+000                                                     T               2         AD vind (axial) at blade 2, node 11, m/s
         92    4.252460598946E-001                                                     T               2         AD vind (tangential) at blade 2, node 11, m/s
         93   -2.592419862747E+000                                                     T               2         AD vind (axial) at blade 2, node 12, m/s
         94    3.838449716568E-001                                                     T               2         AD vind (tangential) at blade 2, node 12, m/s
         95   -2.486729145050E+000                                                     T               2         AD vind (axial) at blade 2, node 13, m/s
         96    3.297858536243E-001                                                     T               2         AD vind (tangential) at blade 2, node 13, m/s
         97   -2.581302404404E+000                                                     T               2         AD vind (axial) at blade 2, node 14, m/s
         98    2.966567575932E-001                                                     T               2         AD vind (tangential) at blade 2, node 14, m/s
         99   -2.754412889481E+000                                                     T               2         AD vind (axial) at blade 2, node 15, m/s
        100    2.692208290100E-001                                                     T               2         AD vind (tangential) at blade 2, node 15, m/s
        101   -2.925320148468E+000                                                     T               2         AD vind (axial) at blade 2, node 16, m/s
        102    2.563612759113E-001                                                     T               2         AD vind (tangential) at blade 2, node 16, m/s
        103   -3.051305532455E+000                                                     T               2         AD vind (axial) at blade 2, node 17, m/s
        104    2.519709169865E-001                                                     T               2         AD vind (tangential) at blade 2, node 17, m/s
        105   -3.026531934738E+000                                                     T               2         AD vind (axial) at blade 2, node 18, m/s
        106    2.268185466528E-001                                                     T               2         AD vind (tangential) at blade 2, node 18, m/s
        107   -6.736373424530E+000                                                     T               2         AD vind (axial) at blade 2, node 19, m/s
        108    0.000000000000E+000                                                     T               2         AD vind (tangential) at blade 2, node 19, m/s
        109   -9.136974334717E+000                                                     T               2         AD vind (axial) at blade 3, node 1, m/s
        110    0.000000000000E+000                                                     T               2         AD vind (tangential) at blade 3, node 1, m/s
        111    0.000000000000E+000                                                     T               2         AD vind (axial) at blade 3, node 2, m/s
        112    0.000000000000E+000                                                     T               2         AD vind (tangential) at blade 3, node 2, m/s
        113    0.000000000000E+000                                                     T               2         AD vind (axial) at blade 3, node 3, m/s
        114    0.000000000000E+000                                                     T               2         AD vind (tangential) at blade 3, node 3, m/s
        115    0.000000000000E+000                                                     T               2         AD vind (axial) at blade 3, node 4, m/s
        116    0.000000000000E+000                                                     T               2         AD vind (tangential) at blade 3, node 4, m/s
        117   -1.699282169342E+000                                                     T               2         AD vind (axial) at blade 3, node 5, m/s
        118    1.126266241074E+000                                                     T               2         AD vind (tangential) at blade 3, node 5, m/s
        119   -2.121262073517E+000                                                     T               2         AD vind (axial) at blade 3, node 6, m/s
        120    9.893279671669E-001                                                     T               2         AD vind (tangential) at blade 3, node 6, m/s
        121   -2.144627571106E+000                                                     T               2         AD vind (axial) at blade 3, node 7, m/s
        122    7.942886948586E-001                                                     T               2         AD vind (tangential) at blade 3, node 7, m/s
        123   -2.110435724258E+000                                                     T               2         AD vind (axial) at blade 3, node 8, m/s
        124    6.483588814735E-001                                                     T               2         AD vind (tangential) at blade 3, node 8, m/s
        125   -2.185101270676E+000                                                     T               2         AD vind (axial) at blade 3, node 9, m/s
        126    5.613894462585E-001                                                     T               2         AD vind (tangential) at blade 3, node 9, m/s
        127   -2.227709293365E+000                                                     T               2         AD vind (axial) at blade 3, node 10, m/s
        128    4.895823001862E-001                                                     T               2         AD vind (tangential) at blade 3, node 10, m/s
        129   -2.375243663788E+000                                                     T               2         AD vind (axial) at blade 3, node 11, m/s
        130    4.443739056587E-001                                                     T               2         AD vind (tangential) at blade 3, node 11, m/s
        131   -2.500447988510E+000                                                     T               2         AD vind (axial) at blade 3, node 12, m/s
        132    4.019125401974E-001                                                     T               2         AD vind (tangential) at blade 3, node 12, m/s
        133   -2.400922775269E+000                                                     T               2         AD vind (axial) at blade 3, node 13, m/s
        134    3.454971313477E-001                                                     T               2         AD vind (tangential) at blade 3, node 13, m/s
        135   -2.506324529648E+000                                                     T               2         AD vind (axial) at blade 3, node 14, m/s
        136    3.112902641296E-001                                                     T               2         AD vind (tangential) at blade 3, node 14, m/s
        137   -2.665706634521E+000                                                     T               2         AD vind (axial) at blade 3, node 15, m/s
        138    2.846702635288E-001                                                     T               2         AD vind (tangential) at blade 3, node 15, m/s
        139   -2.944303035736E+000                                                     T               2         AD vind (axial) at blade 3, node 16, m/s
        140    2.697622478008E-001                                                     T               2         AD vind (tangential) at blade 3, node 16, m/s
        141   -3.224926471710E+000                                                     T               2         AD vind (axial) at blade 3, node 17, m/s
        142    2.649904787540E-001                                                     T               2         AD vind (tangential) at blade 3, node 17, m/s
        143   -3.298853397369E+000                                                     T               2         AD vind (axial) at blade 3, node 18, m/s
        144    2.571797072887E-001                                                     T               2         AD vind (tangential) at blade 3, node 18, m/s
        145   -7.239211559296E+000                                                     T               2         AD vind (axial) at blade 3, node 19, m/s
        146    0.000000000000E+000                                                     T               2         AD vind (tangential) at blade 3, node 19, m/s
        147   -3.715378046036E+000                                                     T               2         AD First time derivative of vind (axial) at blade 1, node 1, m/s/s
        148    0.000000000000E+000                                                     T               2         AD First time derivative of vind (tangential) at blade 1, node 1, m/s/s
        149    0.000000000000E+000                                                     T               2         AD First time derivative of vind (axial) at blade 1, node 2, m/s/s
        150    0.000000000000E+000                                                     T               2         AD First time derivative of vind (tangential) at blade 1, node 2, m/s/s
        151    0.000000000000E+000                                                     T               2         AD First time derivative of vind (axial) at blade 1, node 3, m/s/s
        152    0.000000000000E+000                                                     T               2         AD First time derivative of vind (tangential) at blade 1, node 3, m/s/s
        153    0.000000000000E+000                                                     T               2         AD First time derivative of vind (axial) at blade 1, node 4, m/s/s
        154    0.000000000000E+000                                                     T               2         AD First time derivative of vind (tangential) at blade 1, node 4, m/s/s
        155   -7.440832257271E-001                                                     T               2         AD First time derivative of vind (axial) at blade 1, node 5, m/s/s
        156    4.639440774918E-001                                                     T               2         AD First time derivative of vind (tangential) at blade 1, node 5, m/s/s
        157   -9.035902023315E-001                                                     T               2         AD First time derivative of vind (axial) at blade 1, node 6, m/s/s
        158    4.134829044342E-001                                                     T               2         AD First time derivative of vind (tangential) at blade 1, node 6, m/s/s
        159   -8.983218073845E-001                                                     T               2         AD First time derivative of vind (axial) at blade 1, node 7, m/s/s
        160    3.377970457077E-001                                                     T               2         AD First time derivative of vind (tangential) at blade 1, node 7, m/s/s
        161   -8.761318922043E-001                                                     T               2         AD First time derivative of vind (axial) at blade 1, node 8, m/s/s
        162    2.807759046555E-001                                                     T               2         AD First time derivative of vind (tangential) at blade 1, node 8, m/s/s
        163   -9.001171588898E-001                                                     T               2         AD First time derivative of vind (axial) at blade 1, node 9, m/s/s
        164    2.472909092903E-001                                                     T               2         AD First time derivative of vind (tangential) at blade 1, node 9, m/s/s
        165   -9.164437651634E-001                                                     T               2         AD First time derivative of vind (axial) at blade 1, node 10, m/s/s
        166    2.203119844198E-001                                                     T               2         AD First time derivative of vind (tangential) at blade 1, node 10, m/s/s
        167   -9.602248072624E-001                                                     T               2         AD First time derivative of vind (axial) at blade 1, node 11, m/s/s
        168    2.023679018021E-001                                                     T               2         AD First time derivative of vind (tangential) at blade 1, node 11, m/s/s
        169   -9.937134981155E-001                                                     T               2         AD First time derivative of vind (axial) at blade 1, node 12, m/s/s
        170    1.858771592379E-001                                                     T               2         AD First time derivative of vind (tangential) at blade 1, node 12, m/s/s