
Linearized model: Predictions were generated on 03-Jul-2025 at 08:26:12 using OpenFAST, compiled on Jun 19 2025 at 03:54:01 as a 64-bit application using single precision at commit v4.1.0
 linked with  NWTC Subroutine Library; ElastoDyn; InflowWind; AeroDyn; ServoDyn

Description from the FAST input file: NREL                   MW          - Baseline Wind Turbine (Onshore), Linearization with AeroDyn + ED

Simulation information:
   Simulation time:                     1.0000 s
   Rotor Speed:                         0.9734 rad/s
   Azimuth:                             0.9476 rad
   Wind Speed:                          9.3333 m/s
   Number of continuous states:       228
   Number of discrete states:           0
   Number of constraint states:         0
   Number of inputs:                   60
   Number of outputs:                   1
   Jacobians included in this file?    No

Order of continuous states:
   Row/Column Operating Point                                                   Rotating Frame? Derivative Order Description
   ---------- ---------------                                                   --------------- ---------------- -----------
          1   -9.258275985718E+000                                                     T               2         vind (axial) at blade 1, node 1, m/s
          2    0.000000000000E+000                                                     T               2         vind (tangential) at blade 1, node 1, m/s
          3    0.000000000000E+000                                                     T               2         vind (axial) at blade 1, node 2, m/s
          4    0.000000000000E+000                                                     T               2         vind (tangential) at blade 1, node 2, m/s
          5    0.000000000000E+000                                                     T               2         vind (axial) at blade 1, node 3, m/s
          6    0.000000000000E+000                                                     T               2         vind (tangential) at blade 1, node 3, m/s
          7    0.000000000000E+000                                                     T               2         vind (axial) at blade 1, node 4, m/s
          8    0.000000000000E+000                                                     T               2         vind (tangential) at blade 1, node 4, m/s
          9   -1.873092770576E+000                                                     T               2         vind (axial) at blade 1, node 5, m/s
         10    1.154246449471E+000                                                     T               2         vind (tangential) at blade 1, node 5, m/s
         11   -2.269305467606E+000                                                     T               2         vind (axial) at blade 1, node 6, m/s
         12    1.025739431381E+000                                                     T               2         vind (tangential) at blade 1, node 6, m/s
         13   -2.242489099503E+000                                                     T               2         vind (axial) at blade 1, node 7, m/s
         14    8.335912227631E-001                                                     T               2         vind (tangential) at blade 1, node 7, m/s
         15   -2.189783573151E+000                                                     T               2         vind (axial) at blade 1, node 8, m/s
         16    6.917507052422E-001                                                     T               2         vind (tangential) at blade 1, node 8, m/s
         17   -2.256297111511E+000                                                     T               2         vind (axial) at blade 1, node 9, m/s
         18    6.081628203392E-001                                                     T               2         vind (tangential) at blade 1, node 9, m/s
         19   -2.297955513000E+000                                                     T               2         vind (axial) at blade 1, node 10, m/s
         20    5.391820073128E-001                                                     T               2         vind (tangential) at blade 1, node 10, m/s
         21   -2.418397665024E+000                                                     T               2         vind (axial) at blade 1, node 11, m/s
         22    4.928418397903E-001                                                     T               2         vind (tangential) at blade 1, node 11, m/s
         23   -2.516352891922E+000                                                     T               2         vind (axial) at blade 1, node 12, m/s
         24    4.491103291512E-001                                                     T               2         vind (tangential) at blade 1, node 12, m/s
         25   -2.384150028229E+000                                                     T               2         vind (axial) at blade 1, node 13, m/s
         26    3.863238692284E-001                                                     T               2         vind (tangential) at blade 1, node 13, m/s
         27   -2.473957777023E+000                                                     T               2         vind (axial) at blade 1, node 14, m/s
         28    3.509039282799E-001                                                     T               2         vind (tangential) at blade 1, node 14, m/s
         29   -2.627351522446E+000                                                     T               2         vind (axial) at blade 1, node 15, m/s
         30    3.241412639618E-001                                                     T               2         vind (tangential) at blade 1, node 15, m/s
         31   -2.888156890869E+000                                                     T               2         vind (axial) at blade 1, node 16, m/s
         32    3.122176527977E-001                                                     T               2         vind (tangential) at blade 1, node 16, m/s
         33   -3.214059114456E+000                                                     T               2         vind (axial) at blade 1, node 17, m/s
         34    3.111546039581E-001                                                     T               2         vind (tangential) at blade 1, node 17, m/s
         35   -3.348216772079E+000                                                     T               2         vind (axial) at blade 1, node 18, m/s
         36    3.074085712433E-001                                                     T               2         vind (tangential) at blade 1, node 18, m/s
         37   -8.178907394409E+000                                                     T               2         vind (axial) at blade 1, node 19, m/s
         38    0.000000000000E+000                                                     T               2         vind (tangential) at blade 1, node 19, m/s
         39   -8.998870849609E+000                                                     T               2         vind (axial) at blade 2, node 1, m/s
         40    0.000000000000E+000                                                     T               2         vind (tangential) at blade 2, node 1, m/s
         41    0.000000000000E+000                                                     T               2         vind (axial) at blade 2, node 2, m/s
         42    0.000000000000E+000                                                     T               2         vind (tangential) at blade 2, node 2, m/s
         43    0.000000000000E+000                                                     T               2         vind (axial) at blade 2, node 3, m/s
         44    0.000000000000E+000                                                     T               2         vind (tangential) at blade 2, node 3, m/s
         45    0.000000000000E+000                                                     T               2         vind (axial) at blade 2, node 4, m/s
         46    0.000000000000E+000                                                     T               2         vind (tangential) at blade 2, node 4, m/s
         47   -2.017488241196E+000                                                     T               2         vind (axial) at blade 2, node 5, m/s
         48    1.104215025902E+000                                                     T               2         vind (tangential) at blade 2, node 5, m/s
         49   -2.349887847900E+000                                                     T               2         vind (axial) at blade 2, node 6, m/s
         50    9.513111114502E-001                                                     T               2         vind (tangential) at blade 2, node 6, m/s
         51   -2.193423032761E+000                                                     T               2         vind (axial) at blade 2, node 7, m/s
         52    7.388599514961E-001                                                     T               2         vind (tangential) at blade 2, node 7, m/s
         53   -2.151991844177E+000                                                     T               2         vind (axial) at blade 2, node 8, m/s
         54    6.088636517525E-001                                                     T               2         vind (tangential) at blade 2, node 8, m/s
         55   -2.260426998138E+000                                                     T               2         vind (axial) at blade 2, node 9, m/s
         56    5.352551937103E-001                                                     T               2         vind (tangential) at blade 2, node 9, m/s
         57   -2.292197942734E+000                                                     T               2         vind (axial) at blade 2, node 10, m/s
         58    4.670388996601E-001                                                     T               2         vind (tangential) at blade 2, node 10, m/s
         59   -2.457993268967E+000                                                     T               2         vind (axial) at blade 2, node 11, m/s
         60    4.252460598946E-001                                                     T               2         vind (tangential) at blade 2, node 11, m/s
         61   -2.592419862747E+000                                                     T               2         vind (axial) at blade 2, node 12, m/s
         62    3.838449716568E-001                                                     T               2         vind (tangential) at blade 2, node 12, m/s
         63   -2.486729145050E+000                                                     T               2         vind (axial) at blade 2, node 13, m/s
         64    3.297858536243E-001                                                     T               2         vind (tangential) at blade 2, node 13, m/s
         65   -2.581302404404E+000                                                     T               2         vind (axial) at blade 2, node 14, m/s
         66    2.966567575932E-001                                                     T               2         vind (tangential) at blade 2, node 14, m/s
         67   -2.754412889481E+000                                                     T               2         vind (axial) at blade 2, node 15, m/s
         68    2.692208290100E-001                                                     T               2         vind (tangential) at blade 2, node 15, m/s
         69   -2.925320148468E+000                                                     T               2         vind (axial) at blade 2, node 16, m/s
         70    2.563612759113E-001                                                     T               2         vind (tangential) at blade 2, node 16, m/s
         71   -3.051305532455E+000                                                     T               2         vind (axial) at blade 2, node 17, m/s
         72    2.519709169865E-001                                                     T               2         vind (tangential) at blade 2, node 17, m/s
         73   -3.026531934738E+000                                                     T               2         vind (axial) at blade 2, node 18, m/s
         74    2.268185466528E-001                                                     T               2         vind (tangential) at blade 2, node 18, m/s
         75   -6.736373424530E+000                                                     T               2         vind (axial) at blade 2, node 19, m/s
         76    0.000000000000E+000                                                     T               2         vind (tangential) at blade 2, node 19, m/s
         77   -9.136974334717E+000                                                     T               2         vind (axial) at blade 3, node 1, m/s
         78    0.000000000000E+000                                                     T               2         vind (tangential) at blade 3, node 1, m/s
         79    0.000000000000E+000                                                     T               2         vind (axial) at blade 3, node 2, m/s
         80    0.000000000000E+000                                                     T               2         vind (tangential) at blade 3, node 2, m/s
         81    0.000000000000E+000                                                     T               2         vind (axial) at blade 3, node 3, m/s
         82    0.000000000000E+000                                                     T               2         vind (tangential) at blade 3, node 3, m/s
         83    0.000000000000E+000                                                     T               2         vind (axial) at blade 3, node 4, m/s
         84    0.000000000000E+000                                                     T               2         vind (tangential) at blade 3, node 4, m/s
         85   -1.699282169342E+000                                                     T               2         vind (axial) at blade 3, node 5, m/s
         86    1.126266241074E+000                                                     T               2         vind (tangential) at blade 3, node 5, m/s
         87   -2.121262073517E+000                                                     T               2         vind (axial) at blade 3, node 6, m/s
         88    9.893279671669E-001                                                     T               2         vind (tangential) at blade 3, node 6, m/s
         89   -2.144627571106E+000                                                     T               2         vind (axial) at blade 3, node 7, m/s
         90    7.942886948586E-001                                                     T               2         vind (tangential) at blade 3, node 7, m/s
         91   -2.110435724258E+000                                                     T               2         vind (axial) at blade 3, node 8, m/s
         92    6.483588814735E-001                                                     T               2         vind (tangential) at blade 3, node 8, m/s
         93   -2.185101270676E+000                                                     T               2         vind (axial) at blade 3, node 9, m/s
         94    5.613894462585E-001                                                     T               2         vind (tangential) at blade 3, node 9, m/s
         95   -2.227709293365E+000                                                     T               2         vind (axial) at blade 3, node 10, m/s
         96    4.895823001862E-001                                                     T               2         vind (tangential) at blade 3, node 10, m/s
         97   -2.375243663788E+000                                                     T               2         vind (axial) at blade 3, node 11, m/s
         98    4.443739056587E-001                                                     T               2         vind (tangential) at blade 3, node 11, m/s
         99   -2.500447988510E+000                                                     T               2         vind (axial) at blade 3, node 12, m/s
        100    4.019125401974E-001                                                     T               2         vind (tangential) at blade 3, node 12, m/s
        101   -2.400922775269E+000                                                     T               2         vind (axial) at blade 3, node 13, m/s
        102    3.454971313477E-001                                                     T               2         vind (tangential) at blade 3, node 13, m/s
        103   -2.506324529648E+000                                                     T               2         vind (axial) at blade 3, node 14, m/s
        104    3.112902641296E-001                                                     T               2         vind (tangential) at blade 3, node 14, m/s
        105   -2.665706634521E+000                                                     T               2         vind (axial) at blade 3, node 15, m/s
        106    2.846702635288E-001                                                     T               2         vind (tangential) at blade 3, node 15, m/s
        107   -2.944303035736E+000                                                     T               2         vind (axial) at blade 3, node 16, m/s
        108    2.697622478008E-001                                                     T               2         vind (tangential) at blade 3, node 16, m/s
        109   -3.224926471710E+000                                                     T               2         vind (axial) at blade 3, node 17, m/s
        110    2.649904787540E-001                                                     T               2         vind (tangential) at blade 3, node 17, m/s
        111   -3.298853397369E+000                                                     T               2         vind (axial) at blade 3, node 18, m/s
        112    2.571797072887E-001                                                     T               2         vind (tangential) at blade 3, node 18, m/s
        113   -7.239211559296E+000                                                     T               2         vind (axial) at blade 3, node 19, m/s
        114    0.000000000000E+000                                                     T               2         vind (tangential) at blade 3, node 19, m/s
        115   -3.715378046036E+000                                                     T               2         First time derivative of vind (axial) at blade 1, node 1, m/s/s
        116    0.000000000000E+000                                                     T               2         First time derivative of vind (tangential) at blade 1, node 1, m/s/s
        117    0.000000000000E+000                                                     T               2         First time derivative of vind (axial) at blade 1, node 2, m/s/s
        118    0.000000000000E+000                                                     T               2         First time derivative of vind (tangential) at blade 1, node 2, m/s/s
        119    0.000000000000E+000                                                     T               2         First time derivative of vind (axial) at blade 1, node 3, m/s/s
        120    0.000000000000E+000                                                     T               2         First time derivative of vind (tangential) at blade 1, node 3, m/s/s
        121    0.000000000000E+000                                                     T               2         First time derivative of vind (axial) at blade 1, node 4, m/s/s
        122    0.000000000000E+000                                                     T               2         First time derivative of vind (tangential) at blade 1, node 4, m/s/s
        123   -7.440832257271E-001                                                     T               2         First time derivative of vind (axial) at blade 1, node 5, m/s/s
        124    4.639440774918E-001                                                     T               2         First time derivative of vind (tangential) at blade 1, node 5, m/s/s
        125   -9.035902023315E-001                                                     T               2         First time derivative of vind (axial) at blade 1, node 6, m/s/s
        126    4.134829044342E-001                                                     T               2         First time derivative of vind (tangential) at blade 1, node 6, m/s/s
        127   -8.983218073845E-001                                                     T               2         First time derivative of vind (axial) at blade 1, node 7, m/s/s
        128    3.377970457077E-001                                                     T               2         First time derivative of vind (tangential) at blade 1, node 7, m/s/s
        129   -8.761318922043E-001                                                     T               2         First time derivative of vind (axial) at blade 1, node 8, m/s/s
        130    2.807759046555E-001                                                     T               2         First time derivative of vind (tangential) at blade 1, node 8, m/s/s
        131   -9.001171588898E-001                                                     T               2         First time derivative of vind (axial) at blade 1, node 9, m/s/s
        132    2.472909092903E-001                                                     T               2         First time derivative of vind (tangential) at blade 1, node 9, m/s/s
        133   -9.164437651634E-001                                                     T               2         First time derivative of vind (axial) at blade 1, node 10, m/s/s
        134    2.203119844198E-001                                                     T               2         First time derivative of vind (tangential) at blade 1, node 10, m/s/s
        135   -9.602248072624E-001                                                     T               2         First time derivative of vind (axial) at blade 1, node 11, m/s/s
        136    2.023679018021E-001                                                     T               2         First time derivative of vind (tangential) at blade 1, node 11, m/s/s
        137   -9.937134981155E-001                                                     T               2         First time derivative of vind (axial) at blade 1, node 12, m/s/s
        138    1.858771592379E-001                                                     T               2         First time derivative of vind (tangential) at blade 1, node 12, m/s/s
        139   -9.364139437675E-001                                                     T               2         First time derivative of vind (axial) at blade 1, node 13, m/s/s
        140    1.615565419197E-001                                                     T               2         First time derivative of vind (tangential) at blade 1, node 13, m/s/s
        141   -9.630324840546E-001                                                     T               2         First time derivative of vind (axial) at blade 1, node 14, m/s/s
        142    1.492640674114E-001                                                     T               2         First time derivative of vind (tangential) at blade 1, node 14, m/s/s
        143   -1.014310359955E+000                                                     T               2         First time derivative of vind (axial) at blade 1, node 15, m/s/s
        144    1.410853266716E-001                                                     T               2         First time derivative of vind (tangential) at blade 1, node 15, m/s/s
        145   -1.110810518265E+000                                                     T               2         First time derivative of vind (axial) at blade 1, node 16, m/s/s
        146    1.395016014576E-001                                                     T               2         First time derivative of vind (tangential) at blade 1, node 16, m/s/s
        147   -1.246045470238E+000                                                     T               2         First time derivative of vind (axial) at blade 1, node 17, m/s/s
        148    1.426797956228E-001                                                     T               2         First time derivative of vind (tangential) at blade 1, node 17, m/s/s
        149   -1.346484422684E+000                                                     T               2         First time derivative of vind (axial) at blade 1, node 18, m/s/s
        150    1.445865780115E-001                                                     T               2         First time derivative of vind (tangential) at blade 1, node 18, m/s/s
        151   -3.723977088928E+000                                                     T               2         First time derivative of vind (axial) at blade 1, node 19, m/s/s
        152    0.000000000000E+000                                                     T               2         First time derivative of vind (tangential) at blade 1, node 19, m/s/s
        153   -3.624650478363E+000                                                     T               2         First time derivative of vind (axial) at blade 2, node 1, m/s/s
        154    0.000000000000E+000                                                     T               2         First time derivative of vind (tangential) at blade 2, node 1, m/s/s
        155    0.000000000000E+000                                                     T               2         First time derivative of vind (axial) at blade 2, node 2, m/s/s
        156    0.000000000000E+000                                                     T               2         First time derivative of vind (tangential) at blade 2, node 2, m/s/s
        157    0.000000000000E+000                                                     T               2         First time derivative of vind (axial) at blade 2, node 3, m/s/s
        158    0.000000000000E+000                                                     T               2         First time derivative of vind (tangential) at blade 2, node 3, m/s/s
        159    0.000000000000E+000                                                     T               2         First time derivative of vind (axial) at blade 2, node 4, m/s/s
        160    0.000000000000E+000                                                     T               2         First time derivative of vind (tangential) at blade 2, node 4, m/s/s
        161   -8.058891892433E-001                                                     T               2         First time derivative of vind (axial) at blade 2, node 5, m/s/s
        162    4.454270899296E-001                                                     T               2         First time derivative of vind (tangential) at blade 2, node 5, m/s/s
        163   -9.434353709221E-001                                                     T               2         First time derivative of vind (axial) at blade 2, node 6, m/s/s
        164    3.849844634533E-001                                                     T               2         First time derivative of vind (tangential) at blade 2, node 6, m/s/s
        165   -8.817990422249E-001                                                     T               2         First time derivative of vind (axial) at blade 2, node 7, m/s/s
        166    2.994142174721E-001                                                     T               2         First time derivative of vind (tangential) at blade 2, node 7, m/s/s
        167   -8.658640980721E-001                                                     T               2         First time derivative of vind (axial) at blade 2, node 8, m/s/s
        168    2.472045123577E-001                                                     T               2         First time derivative of vind (tangential) at blade 2, node 8, m/s/s
        169   -9.061283469200E-001                                                     T               2         First time derivative of vind (axial) at blade 2, node 9, m/s/s
        170    2.173469811678E-001                                                     T               2         First time derivative of vind (tangential) at blade 2, node 9, m/s/s
        171   -9.191967248917E-001                                                     T               2         First time derivative of vind (axial) at blade 2, node 10, m/s/s
        172    1.903817802668E-001                                                     T               2         First time derivative of vind (tangential) at blade 2, node 10, m/s/s
        173   -9.823969006538E-001                                                     T               2         First time derivative of vind (axial) at blade 2, node 11, m/s/s
        174    1.740946322680E-001                                                     T               2         First time derivative of vind (tangential) at blade 2, node 11, m/s/s
        175   -1.032422780991E+000                                                     T               2         First time derivative of vind (axial) at blade 2, node 12, m/s/s
        176    1.583794504404E-001                                                     T               2         First time derivative of vind (tangential) at blade 2, node 12, m/s/s
        177   -9.890798926353E-001                                                     T               2         First time derivative of vind (axial) at blade 2, node 13, m/s/s