
Linearized model: Predictions were generated on 03-Jul-2025 at 08:26:12 using OpenFAST, compiled on Jun 19 2025 at 03:54:01 as a 64-bit application using single precision at commit v4.1.0
 linked with  NWTC Subroutine Library; ElastoDyn; InflowWind; AeroDyn; ServoDyn

Description from the FAST input file: NREL                   MW          - Baseline Wind Turbine (Onshore), Linearization with AeroDyn + ED

Simulation information:
   Simulation time:                     1.0000 s
   Rotor Speed:                         1.3246 rad/s
   Azimuth:                             1.2888 rad
   Wind Speed:                         12.0000 m/s
   Number of continuous states:       260
   Number of discrete states:           0
   Number of constraint states:         0
   Number of inputs:                   69
   Number of outputs:                  39
   Jacobians included in this file?    No

Order of continuous states:
   Row/Column Operating Point                                                   Rotating Frame? Derivative Order Description
   ---------- ---------------                                                   --------------- ---------------- -----------
          1    4.289978742599E-001                                                     F               2         ED 1st tower fore-aft bending mode DOF (internal DOF index = DOF_TFA1), m
          2    3.457457292825E-003                                                     F               2         ED 1st tower side-to-side bending mode DOF (internal DOF index = DOF_TSS1), m
          3    1.104511829908E-004                                                     F               2         ED 2nd tower fore-aft bending mode DOF (internal DOF index = DOF_TFA2), m
          4    3.801638740697E-005                                                     F               2         ED 2nd tower side-to-side bending mode DOF (internal DOF index = DOF_TSS2), m
          5    1.573345798533E-004                                                     F               2         ED Nacelle yaw DOF (internal DOF index = DOF_Yaw), rad
          6    6.000929355621E+000                                                     F               2         ED Variable speed generator DOF (internal DOF index = DOF_GeAz), rad
          7    3.025907790288E-004                                                     F               2         ED Drivetrain rotational-flexibility DOF (internal DOF index = DOF_DrTr), rad
          8    6.188020706177E+000                                                     T               2         ED 1st flapwise bending-mode DOF of blade 1 (internal DOF index = DOF_BF(1,1)), m
          9    5.233546257019E+000                                                     T               2         ED 1st flapwise bending-mode DOF of blade 2 (internal DOF index = DOF_BF(2,1)), m
         10    5.668250560760E+000                                                     T               2         ED 1st flapwise bending-mode DOF of blade 3 (internal DOF index = DOF_BF(3,1)), m
         11   -7.555267959833E-002                                                     T               2         ED 1st edgewise bending-mode DOF of blade 1 (internal DOF index = DOF_BE(1,1)), m
         12    7.013010978699E-001                                                     T               2         ED 1st edgewise bending-mode DOF of blade 2 (internal DOF index = DOF_BE(2,1)), m
         13    2.674839198589E-001                                                     T               2         ED 1st edgewise bending-mode DOF of blade 3 (internal DOF index = DOF_BE(3,1)), m
         14    2.445499598980E-002                                                     T               2         ED 2nd flapwise bending-mode DOF of blade 1 (internal DOF index = DOF_BF(1,2)), m
         15    1.533480584621E-001                                                     T               2         ED 2nd flapwise bending-mode DOF of blade 2 (internal DOF index = DOF_BF(2,2)), m
         16    1.058337539434E-001                                                     T               2         ED 2nd flapwise bending-mode DOF of blade 3 (internal DOF index = DOF_BF(3,2)), m
         17    8.510675430298E-001                                                     F               2         ED First time derivative of 1st tower fore-aft bending mode DOF (internal DOF index = DOF_TFA1), m/s
         18    3.430728614330E-002                                                     F               2         ED First time derivative of 1st tower side-to-side bending mode DOF (internal DOF index = DOF_TSS1), m/s
         19    1.136622973718E-003                                                     F               2         ED First time derivative of 2nd tower fore-aft bending mode DOF (internal DOF index = DOF_TFA2), m/s
         20   -1.455275778426E-004                                                     F               2         ED First time derivative of 2nd tower side-to-side bending mode DOF (internal DOF index = DOF_TSS2), m/s
         21   -1.249702036148E-004                                                     F               2         ED First time derivative of Nacelle yaw DOF (internal DOF index = DOF_Yaw), rad/s
         22    1.322266101837E+000                                                     F               2         ED First time derivative of Variable speed generator DOF (internal DOF index = DOF_GeAz), rad/s
         23    2.338614780456E-003                                                     F               2         ED First time derivative of Drivetrain rotational-flexibility DOF (internal DOF index = DOF_DrTr), rad/s
         24   -7.922998070717E-001                                                     T               2         ED First time derivative of 1st flapwise bending-mode DOF of blade 1 (internal DOF index = DOF_BF(1,1)), m/s
         25   -1.365671515465E+000                                                     T               2         ED First time derivative of 1st flapwise bending-mode DOF of blade 2 (internal DOF index = DOF_BF(2,1)), m/s
         26   -1.048564791679E+000                                                     T               2         ED First time derivative of 1st flapwise bending-mode DOF of blade 3 (internal DOF index = DOF_BF(3,1)), m/s
         27    1.313301026821E-001                                                     T               2         ED First time derivative of 1st edgewise bending-mode DOF of blade 1 (internal DOF index = DOF_BE(1,1)), m/s
         28   -1.375901699066E+000                                                     T               2         ED First time derivative of 1st edgewise bending-mode DOF of blade 2 (internal DOF index = DOF_BE(2,1)), m/s
         29    2.827900946140E-001                                                     T               2         ED First time derivative of 1st edgewise bending-mode DOF of blade 3 (internal DOF index = DOF_BE(3,1)), m/s
         30   -4.567559435964E-002                                                     T               2         ED First time derivative of 2nd flapwise bending-mode DOF of blade 1 (internal DOF index = DOF_BF(1,2)), m/s
         31   -5.013861656189E-001                                                     T               2         ED First time derivative of 2nd flapwise bending-mode DOF of blade 2 (internal DOF index = DOF_BF(2,2)), m/s
         32   -7.455150783062E-002                                                     T               2         ED First time derivative of 2nd flapwise bending-mode DOF of blade 3 (internal DOF index = DOF_BF(3,2)), m/s
         33   -1.186788368225E+001                                                     T               2         AD vind (axial) at blade 1, node 1, m/s
         34    0.000000000000E+000                                                     T               2         AD vind (tangential) at blade 1, node 1, m/s
         35    0.000000000000E+000                                                     T               2         AD vind (axial) at blade 1, node 2, m/s
         36    0.000000000000E+000                                                     T               2         AD vind (tangential) at blade 1, node 2, m/s
         37    0.000000000000E+000                                                     T               2         AD vind (axial) at blade 1, node 3, m/s
         38    0.000000000000E+000                                                     T               2         AD vind (tangential) at blade 1, node 3, m/s
         39    0.000000000000E+000                                                     T               2         AD vind (axial) at blade 1, node 4, m/s
         40    0.000000000000E+000                                                     T               2         AD vind (tangential) at blade 1, node 4, m/s
         41   -2.573712587357E+000                                                     T               2         AD vind (axial) at blade 1, node 5, m/s
         42    1.472681164742E+000                                                     T               2         AD vind (tangential) at blade 1, node 5, m/s
         43   -3.088289499283E+000                                                     T               2         AD vind (axial) at blade 1, node 6, m/s
         44    1.294386029243E+000                                                     T               2         AD vind (tangential) at blade 1, node 6, m/s
         45   -2.945983886719E+000                                                     T               2         AD vind (axial) at blade 1, node 7, m/s
         46    1.025727152824E+000                                                     T               2         AD vind (tangential) at blade 1, node 7, m/s
         47   -2.905804872513E+000                                                     T               2         AD vind (axial) at blade 1, node 8, m/s
         48    8.556562662125E-001                                                     T               2         AD vind (tangential) at blade 1, node 8, m/s
         49   -3.042055368423E+000                                                     T               2         AD vind (axial) at blade 1, node 9, m/s
         50    7.575783133507E-001                                                     T               2         AD vind (tangential) at blade 1, node 9, m/s
         51   -3.088480234146E+000                                                     T               2         AD vind (axial) at blade 1, node 10, m/s
         52    6.682378649712E-001                                                     T               2         AD vind (tangential) at blade 1, node 10, m/s
         53   -3.302173376083E+000                                                     T               2         AD vind (axial) at blade 1, node 11, m/s
         54    6.132913231850E-001                                                     T               2         AD vind (tangential) at blade 1, node 11, m/s
         55   -3.465321302414E+000                                                     T               2         AD vind (axial) at blade 1, node 12, m/s
         56    5.575423836708E-001                                                     T               2         AD vind (tangential) at blade 1, node 12, m/s
         57   -3.294656515121E+000                                                     T               2         AD vind (axial) at blade 1, node 13, m/s
         58    4.784791469574E-001                                                     T               2         AD vind (tangential) at blade 1, node 13, m/s
         59   -3.427257061005E+000                                                     T               2         AD vind (axial) at blade 1, node 14, m/s
         60    4.320428371429E-001                                                     T               2         AD vind (tangential) at blade 1, node 14, m/s
         61   -3.626815319061E+000                                                     T               2         AD vind (axial) at blade 1, node 15, m/s
         62    3.959096670151E-001                                                     T               2         AD vind (tangential) at blade 1, node 15, m/s
         63   -3.986388206482E+000                                                     T               2         AD vind (axial) at blade 1, node 16, m/s
         64    3.761716783047E-001                                                     T               2         AD vind (tangential) at blade 1, node 16, m/s
         65   -4.222744464874E+000                                                     T               2         AD vind (axial) at blade 1, node 17, m/s
         66    3.723672032356E-001                                                     T               2         AD vind (tangential) at blade 1, node 17, m/s
         67   -4.235263824463E+000                                                     T               2         AD vind (axial) at blade 1, node 18, m/s
         68    3.517633676529E-001                                                     T               2         AD vind (tangential) at blade 1, node 18, m/s
         69   -9.844603538513E+000                                                     T               2         AD vind (axial) at blade 1, node 19, m/s
         70    0.000000000000E+000                                                     T               2         AD vind (tangential) at blade 1, node 19, m/s
         71   -1.151082992554E+001                                                     T               2         AD vind (axial) at blade 2, node 1, m/s
         72    0.000000000000E+000                                                     T               2         AD vind (tangential) at blade 2, node 1, m/s
         73    0.000000000000E+000                                                     T               2         AD vind (axial) at blade 2, node 2, m/s
         74    0.000000000000E+000                                                     T               2         AD vind (tangential) at blade 2, node 2, m/s
         75    0.000000000000E+000                                                     T               2         AD vind (axial) at blade 2, node 3, m/s
         76    0.000000000000E+000                                                     T               2         AD vind (tangential) at blade 2, node 3, m/s
         77    0.000000000000E+000                                                     T               2         AD vind (axial) at blade 2, node 4, m/s
         78    0.000000000000E+000                                                     T               2         AD vind (tangential) at blade 2, node 4, m/s
         79   -2.725194454193E+000                                                     T               2         AD vind (axial) at blade 2, node 5, m/s
         80    1.398954868317E+000                                                     T               2         AD vind (tangential) at blade 2, node 5, m/s
         81   -3.068266868591E+000                                                     T               2         AD vind (axial) at blade 2, node 6, m/s
         82    1.171723723412E+000                                                     T               2         AD vind (tangential) at blade 2, node 6, m/s
         83   -2.837332487106E+000                                                     T               2         AD vind (axial) at blade 2, node 7, m/s
         84    9.017351269722E-001                                                     T               2         AD vind (tangential) at blade 2, node 7, m/s
         85   -2.778641462326E+000                                                     T               2         AD vind (axial) at blade 2, node 8, m/s
         86    7.402225732803E-001                                                     T               2         AD vind (tangential) at blade 2, node 8, m/s
         87   -2.989003419876E+000                                                     T               2         AD vind (axial) at blade 2, node 9, m/s
         88    6.588484048843E-001                                                     T               2         AD vind (tangential) at blade 2, node 9, m/s
         89   -3.050313711166E+000                                                     T               2         AD vind (axial) at blade 2, node 10, m/s
         90    5.755761265755E-001                                                     T               2         AD vind (tangential) at blade 2, node 10, m/s
         91   -3.323321580887E+000                                                     T               2         AD vind (axial) at blade 2, node 11, m/s
         92    5.258469581604E-001                                                     T               2         AD vind (tangential) at blade 2, node 11, m/s
         93   -3.543152332306E+000                                                     T               2         AD vind (axial) at blade 2, node 12, m/s
         94    4.746114313602E-001                                                     T               2         AD vind (tangential) at blade 2, node 12, m/s
         95   -3.393304109573E+000                                                     T               2         AD vind (axial) at blade 2, node 13, m/s
         96    4.064650833607E-001                                                     T               2         AD vind (tangential) at blade 2, node 13, m/s
         97   -3.532421827316E+000                                                     T               2         AD vind (axial) at blade 2, node 14, m/s
         98    3.647247850895E-001                                                     T               2         AD vind (tangential) at blade 2, node 14, m/s
         99   -3.768427610397E+000                                                     T               2         AD vind (axial) at blade 2, node 15, m/s
        100    3.291342258453E-001                                                     T               2         AD vind (tangential) at blade 2, node 15, m/s
        101   -3.876788616180E+000                                                     T               2         AD vind (axial) at blade 2, node 16, m/s
        102    3.120075762272E-001                                                     T               2         AD vind (tangential) at blade 2, node 16, m/s
        103   -3.971554279327E+000                                                     T               2         AD vind (axial) at blade 2, node 17, m/s
        104    2.824830710888E-001                                                     T               2         AD vind (tangential) at blade 2, node 17, m/s
        105   -3.809879302979E+000                                                     T               2         AD vind (axial) at blade 2, node 18, m/s
        106    2.612855434418E-001                                                     T               2         AD vind (tangential) at blade 2, node 18, m/s
        107   -8.201850891113E+000                                                     T               2         AD vind (axial) at blade 2, node 19, m/s
        108    0.000000000000E+000                                                     T               2         AD vind (tangential) at blade 2, node 19, m/s
        109   -1.171881961823E+001                                                     T               2         AD vind (axial) at blade 3, node 1, m/s
        110    0.000000000000E+000                                                     T               2         AD vind (tangential) at blade 3, node 1, m/s
        111    0.000000000000E+000                                                     T               2         AD vind (axial) at blade 3, node 2, m/s
        112    0.000000000000E+000                                                     T               2         AD vind (tangential) at blade 3, node 2, m/s
        113    0.000000000000E+000                                                     T               2         AD vind (axial) at blade 3, node 3, m/s
        114    0.000000000000E+000                                                     T               2         AD vind (tangential) at blade 3, node 3, m/s
        115    0.000000000000E+000                                                     T               2         AD vind (axial) at blade 3, node 4, m/s
        116    0.000000000000E+000                                                     T               2         AD vind (tangential) at blade 3, node 4, m/s
        117   -2.353259801865E+000                                                     T               2         AD vind (axial) at blade 3, node 5, m/s
        118    1.445337057114E+000                                                     T               2         AD vind (tangential) at blade 3, node 5, m/s
        119   -2.949005365372E+000                                                     T               2         AD vind (axial) at blade 3, node 6, m/s
        120    1.265919208527E+000                                                     T               2         AD vind (tangential) at blade 3, node 6, m/s
        121   -2.827055454254E+000                                                     T               2         AD vind (axial) at blade 3, node 7, m/s
        122    9.801234006882E-001                                                     T               2         AD vind (tangential) at blade 3, node 7, m/s
        123   -2.791359186172E+000                                                     T               2         AD vind (axial) at blade 3, node 8, m/s
        124    8.009635806084E-001                                                     T               2         AD vind (tangential) at blade 3, node 8, m/s
        125   -2.938145875931E+000                                                     T               2         AD vind (axial) at blade 3, node 9, m/s
        126    6.993203759193E-001                                                     T               2         AD vind (tangential) at blade 3, node 9, m/s
        127   -3.000481843948E+000                                                     T               2         AD vind (axial) at blade 3, node 10, m/s
        128    6.090376377106E-001                                                     T               2         AD vind (tangential) at blade 3, node 10, m/s
        129   -3.238918781281E+000                                                     T               2         AD vind (axial) at blade 3, node 11, m/s
        130    5.540213584900E-001                                                     T               2         AD vind (tangential) at blade 3, node 11, m/s
        131   -3.440793037415E+000                                                     T               2         AD vind (axial) at blade 3, node 12, m/s
        132    5.000789761543E-001                                                     T               2         AD vind (tangential) at blade 3, node 12, m/s
        133   -3.317188024521E+000                                                     T               2         AD vind (axial) at blade 3, node 13, m/s
        134    4.291435778141E-001                                                     T               2         AD vind (tangential) at blade 3, node 13, m/s
        135   -3.474216461182E+000                                                     T               2         AD vind (axial) at blade 3, node 14, m/s
        136    3.851352334023E-001                                                     T               2         AD vind (tangential) at blade 3, node 14, m/s
        137   -3.699629783630E+000                                                     T               2         AD vind (axial) at blade 3, node 15, m/s
        138    3.495687544346E-001                                                     T               2         AD vind (tangential) at blade 3, node 15, m/s
        139   -4.026053428650E+000                                                     T               2         AD vind (axial) at blade 3, node 16, m/s
        140    3.288712203503E-001                                                     T               2         AD vind (tangential) at blade 3, node 16, m/s
        141   -4.236442089081E+000                                                     T               2         AD vind (axial) at blade 3, node 17, m/s
        142    3.201563656330E-001                                                     T               2         AD vind (tangential) at blade 3, node 17, m/s
        143   -4.182701110840E+000                                                     T               2         AD vind (axial) at blade 3, node 18, m/s
        144    2.902752459049E-001                                                     T               2         AD vind (tangential) at blade 3, node 18, m/s
        145   -8.836262702942E+000                                                     T               2         AD vind (axial) at blade 3, node 19, m/s
        146    0.000000000000E+000                                                     T               2         AD vind (tangential) at blade 3, node 19, m/s
        147   -4.767035007477E+000                                                     T               2         AD First time derivative of vind (axial) at blade 1, node 1, m/s/s
        148    0.000000000000E+000                                                     T               2         AD First time derivative of vind (tangential) at blade 1, node 1, m/s/s
        149    0.000000000000E+000                                                     T               2         AD First time derivative of vind (axial) at blade 1, node 2, m/s/s
        150    0.000000000000E+000                                                     T               2         AD First time derivative of vind (tangential) at blade 1, node 2, m/s/s
        151    0.000000000000E+000                                                     T               2         AD First time derivative of vind (axial) at blade 1, node 3, m/s/s
        152    0.000000000000E+000                                                     T               2         AD First time derivative of vind (tangential) at blade 1, node 3, m/s/s
        153    0.000000000000E+000                                                     T               2         AD First time derivative of vind (axial) at blade 1, node 4, m/s/s
        154    0.000000000000E+000                                                     T               2         AD First time derivative of vind (tangential) at blade 1, node 4, m/s/s
        155   -1.022027850151E+000                                                     T               2         AD First time derivative of vind (axial) at blade 1, node 5, m/s/s
        156    5.931645035744E-001                                                     T               2         AD First time derivative of vind (tangential) at blade 1, node 5, m/s/s
        157   -1.235992789268E+000                                                     T               2         AD First time derivative of vind (axial) at blade 1, node 6, m/s/s
        158    5.246075391769E-001                                                     T               2         AD First time derivative of vind (tangential) at blade 1, node 6, m/s/s
        159   -1.183935642242E+000                                                     T               2         AD First time derivative of vind (axial) at blade 1, node 7, m/s/s
        160    4.175743460655E-001                                                     T               2         AD First time derivative of vind (tangential) at blade 1, node 7, m/s/s
        161   -1.168982982635E+000                                                     T               2         AD First time derivative of vind (axial) at blade 1, node 8, m/s/s
        162    3.496027290821E-001                                                     T               2         AD First time derivative of vind (tangential) at blade 1, node 8, m/s/s
        163   -1.217078447342E+000                                                     T               2         AD First time derivative of vind (axial) at blade 1, node 9, m/s/s
        164    3.099011480808E-001                                                     T               2         AD First time derivative of vind (tangential) at blade 1, node 9, m/s/s
        165   -1.235398769379E+000                                                     T               2         AD First time derivative of vind (axial) at blade 1, node 10, m/s/s
        166    2.750373780727E-001                                                     T               2         AD First time derivative of vind (tangential) at blade 1, node 10, m/s/s
        167   -1.312622189522E+000                                                     T               2         AD First time derivative of vind (axial) at blade 1, node 11, m/s/s
        168    2.539857625961E-001                                                     T               2         AD First time derivative of vind (tangential) at blade 1, node 11, m/s/s
        169   -1.368441462517E+000                                                     T               2         AD First time derivative of vind (axial) at blade 1, node 12, m/s/s
        170    2.334207892418E-001                                                     T               2         AD First time derivative of vind (tangential) at blade 1, node 12, m/s/s