
Predictions were generated on 03-Jul-2025 at 08:26:12 using OpenFAST, compiled on Jun 19 2025 at 03:54:01 as a 64-bit application using single precision at commit v4.1.0
 linked with  NWTC Subroutine Library; ElastoDyn; InflowWind; AeroDyn; ServoDyn

Description from the FAST input file: NREL                   MW          - Baseline Wind Turbine (Onshore), Linearization with AeroDyn + ED

Time	Wind1VelX	Wind1VelY	Wind1VelZ	OoPDefl1	IPDefl1	TwstDefl1	BldPitch1	Azimuth	RotSpeed	GenSpeed	TTDspFA	TTDspSS	TTDspTwst	Spn2MLxb1	Spn2MLyb1	RootFxb1	RootFyb1	RootFzb1	RootMxb1	RootMyb1	RootMzb1	RotTorq	LSSGagMya	LSSGagMza	YawBrFxp	YawBrFyp	YawBrFzp	YawBrMxp	YawBrMyp	YawBrMzp	TwrBsFxt	TwrBsFyt	TwrBsFzt	TwrBsMxt	TwrBsMyt	TwrBsMzt	RtAeroCp	GenPwr	GenTq
(s)	(m/s)	(m/s)	(m/s)	(m)	(m)	(deg)	(deg)	(deg)	(rpm)	(rpm)	(m)	(m)	(deg)	(kN-m)	(kN-m)	(kN)	(kN)	(kN)	(kN-m)	(kN-m)	(kN-m)	(kN-m)	(kN-m)	(kN-m)	(kN)	(kN)	(kN)	(kN-m)	(kN-m)	(kN-m)	(kN)	(kN)	(kN)	(kN-m)	(kN-m)	(kN-m)	(-)	(kW)	(kN-m)
    0.0000	 1.200000000000E+001	 0.000000000000E+000	 0.000000000000E+000	 0.000000000000E+000	 0.000000000000E+000	 0.000000000000E+000	 0.000000000000E+000	 0.000000000000E+000	 1.210000133514E+001	 1.173700073242E+003	 0.000000000000E+000	 0.000000000000E+000	 0.000000000000E+000	 3.499375104904E+000	-1.214382457733E+001	 1.391139507294E+001	-6.403041481972E-001	 4.527156372070E+002	 4.837933063507E+000	 1.258269042969E+002	-2.574940936029E-007	-5.592939123744E-005	-1.924404174805E+003	-4.249401092529E+001	 1.286288738251E+001	-7.880026102066E-002	-3.319781250000E+003	-1.171999454498E+000	-3.984422607422E+002	 4.746292688651E-005	-1.505251407623E+001	 2.315287105739E-002	-6.727202636719E+003	-4.482772052288E-001	-3.412592468262E+002	 4.746292688651E-005	 4.747182130814E-001	 0.000000000000E+000	 0.000000000000E+000
    0.1000	 1.200000000000E+001	 0.000000000000E+000	 0.000000000000E+000	 4.894302487373E-001	-1.506316103041E-002	 0.000000000000E+000	 0.000000000000E+000	 7.281828403473E+000	 1.214903450012E+001	 1.176076293945E+003	-1.088024146156E-004	-1.344146294286E-004	 0.000000000000E+000	-1.373576049805E+002	 2.178072662354E+002	 6.395661926270E+001	-2.649655532837E+001	 4.616979064941E+002	 2.596623535156E+002	 1.627517456055E+003	-1.093157672882E+001	 2.808419799805E+002	-1.948154663086E+003	 2.148802795410E+002	 3.959767580032E+000	 6.854561328888E+000	-3.358178710938E+003	 2.687889404297E+002	-5.877156372070E+002	 2.546373558044E+001	 3.279834747314E+001	-1.443143606186E+000	-6.765598144531E+003	-2.300363540649E+001	 8.805278930664E+002	 2.546331977844E+001	 4.186047017574E-001	 0.000000000000E+000	 0.000000000000E+000
    0.2000	 1.200000000000E+001	 0.000000000000E+000	 0.000000000000E+000	 1.526396036148E+000	-1.087562292814E-001	 0.000000000000E+000	 0.000000000000E+000	 1.455600643158E+001	 1.210753917694E+001	 1.179817016602E+003	 2.407586667687E-003	-9.236559271812E-004	 0.000000000000E+000	-1.890088043213E+002	 7.404761962891E+002	 1.462872619629E+002	-4.282324218750E+001	 4.677368469238E+002	 5.027572631836E+002	 4.531379882812E+003	-1.782331085205E+001	 2.390155792236E+000	-1.961963745117E+003	 4.901543579102E+002	 3.604529190063E+001	-1.844196319580E+001	-3.442148193359E+003	 4.519874572754E+001	-8.114075927734E+002	 7.340467071533E+001	 3.693504714966E+001	 2.691445922852E+001	-6.849566894531E+003	-6.353806152344E+002	 1.250213745117E+003	 7.340345764160E+001	 4.357372224331E-001	 0.000000000000E+000	 0.000000000000E+000
    0.3000	 1.200000000000E+001	 0.000000000000E+000	 0.000000000000E+000	 2.811080932617E+000	-2.784586548805E-001	 0.000000000000E+000	 0.000000000000E+000	 2.183611297607E+001	 1.216633796692E+001	 1.177418457031E+003	 1.351526845247E-002	-2.204178832471E-003	 0.000000000000E+000	-1.418937683105E+002	 1.366996337891E+003	 2.165648345947E+002	-6.179974365234E+001	 4.785162658691E+002	 1.013019836426E+003	 7.117159179688E+003	-1.388565540314E+001	-1.174173126221E+002	-1.782763061523E+003	 6.331624755859E+002	 1.188106079102E+002	-2.990682363510E+000	-3.519827636719E+003	-1.150679550171E+002	-6.256844482422E+002	-5.282518768311E+001	-3.623283004761E+001	-1.257104301453E+001	-6.927246093750E+003	 6.200405883789E+002	 4.889585571289E+002	-5.282748413086E+001	 5.263156294823E-001	 0.000000000000E+000	 0.000000000000E+000
    0.4000	 1.200000000000E+001	 0.000000000000E+000	 0.000000000000E+000	 4.142699718475E+000	-4.816064834595E-001	 0.000000000000E+000	 0.000000000000E+000	 2.914173889160E+001	 1.217564105988E+001	 1.178571166992E+003	 3.712054714561E-002	-3.505597822368E-003	 0.000000000000E+000	-6.630830383301E+001	 2.025992553711E+003	 2.392922363281E+002	-9.362969207764E+001	 4.835541687012E+002	 1.792108642578E+003	 8.501850585938E+003	-1.372742843628E+001	 2.202202606201E+002	-1.852319702148E+003	 1.033603271484E+003	 1.759957885742E+002	 2.069832038879E+001	-3.562473388672E+003	 1.676851348877E+002	-8.505181274414E+002	-1.169690551758E+002	 3.569800376892E+000	-4.081693267822E+001	-6.969868652344E+003	 1.462163452148E+003	 4.378151367188E+003	-1.169392242432E+002	 5.193979740143E-001	 0.000000000000E+000	 0.000000000000E+000
    0.5000	 1.200000000000E+001	 0.000000000000E+000	 0.000000000000E+000	 5.163136005402E+000	-7.002149224281E-001	 0.000000000000E+000	 0.000000000000E+000	 3.645913696289E+001	 1.223818016052E+001	 1.184113281250E+003	 7.409323006868E-002	-4.198298789561E-003	 0.000000000000E+000	 1.196174621582E+002	 2.529281250000E+003	 2.522556762695E+002	-1.182487716675E+002	 4.869144897461E+002	 2.609654052734E+003	 9.470861328125E+003	-2.780820465088E+001	 4.014374694824E+002	-1.785816162109E+003	 1.416917358398E+003	 1.947102203369E+002	-8.400540351868E+000	-3.561913085938E+003	 4.011894836426E+002	-1.073880859375E+003	-1.397255554199E+002	 1.769595489502E+002	 2.316571235657E+001	-6.969317382812E+003	-2.365398864746E+002	 1.349762402344E+004	-1.396499633789E+002	 4.566431939602E-001	 0.000000000000E+000	 0.000000000000E+000
    0.6000	 1.200000000000E+001	 0.000000000000E+000	 0.000000000000E+000	 5.751520156860E+000	-8.479636907578E-001	 0.000000000000E+000	 0.000000000000E+000	 4.383839035034E+001	 1.234954929352E+001	 1.195083496094E+003	 1.245184838772E-001	-3.611604915932E-003	 0.000000000000E+000	 2.242492980957E+002	 2.801647216797E+003	 2.784517517090E+002	-1.470963592529E+002	 4.990122375488E+002	 3.341049804688E+003	 1.040263964844E+004	-3.801993179321E+001	 7.738242187500E+002	-1.547967651367E+003	 1.812759887695E+003	 3.038352050781E+002	 8.096044540405E+000	-3.527282470703E+003	 7.532263183594E+002	-7.881946411133E+002	 1.395042324066E+001	 2.335094909668E+002	 1.484859275818E+001	-6.934957031250E+003	-1.792189331055E+002	 2.089848828125E+004	 1.419713306427E+001	 4.551311433315E-001	 0.000000000000E+000	 0.000000000000E+000
    0.7000	 1.200000000000E+001	 0.000000000000E+000	 0.000000000000E+000	 6.040895938873E+000	-9.271550178528E-001	 0.000000000000E+000	 0.000000000000E+000	 5.126671218872E+001	 1.241421031952E+001	 1.208827636719E+003	 1.878306716681E-001	-2.187062753364E-003	 0.000000000000E+000	 3.025738830566E+002	 2.934969238281E+003	 3.010616455078E+002	-1.574456634521E+002	 5.151553344727E+002	 3.666859863281E+003	 1.103706152344E+004	-4.472385406494E+001	 5.986816406250E+002	-1.032767211914E+003	 2.018378173828E+003	 4.511228637695E+002	 1.734121131897E+001	-3.481552490234E+003	 5.956867065430E+002	-9.225297546387E+001	 3.890402526855E+002	 2.610878601074E+002	-8.418019294739E+000	-6.889841796875E+003	 3.113059692383E+002	 2.895695312500E+004	 3.893664550781E+002	 4.752985537052E-001	 0.000000000000E+000	 0.000000000000E+000
    0.8000	 1.200000000000E+001	 0.000000000000E+000	 0.000000000000E+000	 6.168651103973E+000	-9.270268082619E-001	 0.000000000000E+000	 0.000000000000E+000	 5.874661636353E+001	 1.252110385895E+001	 1.216199340820E+003	 2.620261013508E-001	-1.011551124975E-003	 0.000000000000E+000	 2.690157165527E+002	 2.992362304688E+003	 3.074905700684E+002	-1.639409484863E+002	 5.341060791016E+002	 3.676817871094E+003	 1.123292968750E+004	-3.887854766846E+001	 2.636419372559E+002	-3.053789672852E+002	 1.951200683594E+003	 5.285252075195E+002	-4.768053054810E+000	-3.452263183594E+003	 3.525819091797E+002	 4.651730346680E+002	 9.155520019531E+002	 4.676623229980E+002	 1.621236991882E+001	-6.861408203125E+003	-4.349306335449E+002	 4.322323046875E+004	 9.157902221680E+002	 4.937392771244E-001	 0.000000000000E+000	 0.000000000000E+000
    0.9000	 1.200000000000E+001	 0.000000000000E+000	 0.000000000000E+000	 6.196471214294E+000	-8.806776404381E-001	 0.000000000000E+000	 0.000000000000E+000	 6.628025817871E+001	 1.257992744446E+001	 1.220601928711E+003	 3.439078927040E-001	-1.183892716654E-003	 0.000000000000E+000	 1.686229705811E+002	 2.994259521484E+003	 3.051275329590E+002	-1.696936645508E+002	 5.580975341797E+002	 3.541114746094E+003	 1.109807812500E+004	-2.684415054321E+001	 2.251268463135E+002	 3.088986206055E+002	 1.819729614258E+003	 6.285484619141E+002	-1.097747230530E+001	-3.450425048828E+003	 3.616815795898E+002	 8.911506347656E+002	 1.306358886719E+003	 6.736903686523E+002	 2.194659614563E+001	-6.861127441406E+003	-5.778590087891E+002	 5.837621093750E+004	 1.306650268555E+003	 5.035809874535E-001	 0.000000000000E+000	 0.000000000000E+000
    1.0000	 1.200000000000E+001	 0.000000000000E+000	 0.000000000000E+000	 6.144642353058E+000	-8.566951751709E-001	 0.000000000000E+000	 0.000000000000E+000	 7.384526824951E+001	 1.264904403687E+001	 1.224791015625E+003	 4.291083216667E-001	-3.495473647490E-003	 0.000000000000E+000	 1.737960815430E+002	 2.960703857422E+003	 3.076261901855E+002	-1.588058013916E+002	 5.906578979492E+002	 3.316044433594E+003	 1.097570019531E+004	-2.787672805786E+001	 2.770734252930E+002	 6.905615844727E+002	 1.747790161133E+003	 8.040063476562E+002	-5.272536277771E+000	-3.471770263672E+003	 4.115401916504E+002	 1.322044189453E+003	 1.417661132812E+003	 7.613597412109E+002	 4.189515590668E+000	-6.884881835938E+003	 1.571983489990E+002	 7.063833593750E+004	 1.418158325195E+003	 5.020990967751E-001	 0.000000000000E+000	 0.000000000000E+000
    1.1000	 1.200000000000E+001	 0.000000000000E+000	 0.000000000000E+000	 6.051675319672E+000	-8.258438110352E-001	 0.000000000000E+000	 0.000000000000E+000	 8.146677398682E+001	 1.275209236145E+001	 1.233092285156E+003	 5.128809213638E-001	-7.774565834552E-003	 0.000000000000E+000	 1.268504486084E+002	 2.912068359375E+003	 3.149526672363E+002	-1.609871063232E+002	 6.271159667969E+002	 3.240745117188E+003	 1.103711523438E+004	-2.353045082092E+001	 6.437243652344E+002	 8.716077880859E+002	 1.684655151367E+003	 9.400397338867E+002	 5.368963479996E-001	-3.495739257812E+003	 7.413513793945E+002	 1.470025146484E+003	 1.165565795898E+003	 9.308413696289E+002	-2.631551980972E+000	-6.911561523438E+003	 7.588986816406E+002	 8.499016406250E+004	 1.166675048828E+003	 4.976852834225E-001	 0.000000000000E+000	 0.000000000000E+000
    1.2000	 1.200000000000E+001	 0.000000000000E+000	 0.000000000000E+000	 5.970737457275E+000	-8.122858405113E-001	 0.000000000000E+000	 0.000000000000E+000	 8.914196777344E+001	 1.283365535736E+001	 1.246459228516E+003	 5.915701985359E-001	-1.281861402094E-002	 0.000000000000E+000	 1.045521545410E+002	 2.873375976562E+003	 3.231430969238E+002	-1.652728729248E+002	 6.657047119141E+002	 3.257986083984E+003	 1.115383496094E+004	-2.168977928162E+001	 7.154086303711E+002	 9.974057006836E+002	 1.616928222656E+003	 1.028988281250E+003	-1.461178874969E+001	-3.500156494141E+003	 8.109016113281E+002	 1.476287597656E+003	 8.312716064453E+002	 1.167660034180E+003	 1.200381374359E+001	-6.918850097656E+003	 9.380109863281E+002	 1.006027265625E+005	 8.327690429688E+002	 4.960305392742E-001	 0.000000000000E+000	 0.000000000000E+000
    1.3000	 1.200000000000E+001	 0.000000000000E+000	 0.000000000000E+000	 5.937989711761E+000	-8.328779339790E-001	 0.000000000000E+000	 0.000000000000E+000	 9.687399291992E+001	 1.294139194489E+001	 1.257583984375E+003	 6.623404622078E-001	-1.683370210230E-002	 0.000000000000E+000	 1.499297485352E+002	 2.858000976562E+003	 3.299485473633E+002	-1.646579284668E+002	 7.019105834961E+002	 3.349059814453E+003	 1.121493554688E+004	-2.689834785461E+001	 4.885238342285E+002	 1.138235717773E+003	 1.556619873047E+003	 1.163967041016E+003	-8.704816818237E+000	-3.482092773438E+003	 5.538621215820E+002	 1.773833496094E+003	 6.185210571289E+002	 1.265234985352E+003	-2.543928527832E+001	-6.904099121094E+003	 2.473167724609E+003	 1.114246718750E+005	 6.202037963867E+002	 4.966591298580E-001	 0.000000000000E+000	 0.000000000000E+000
    1.4000	 1.200000000000E+001	 0.000000000000E+000	 0.000000000000E+000	 5.948698997498E+000	-8.645329475403E-001	 0.000000000000E+000	 0.000000000000E+000	 1.046638946533E+002	 1.301616764069E+001	 1.264778564453E+003	 7.220872044563E-001	-1.856578327715E-002	 0.000000000000E+000	 1.921497650146E+002	 2.863998779297E+003	 3.327389221191E+002	-1.685271453857E+002	 7.315256958008E+002	 3.533978759766E+003	 1.123538671875E+004	-3.269860839844E+001	 2.905935974121E+002	 1.262723144531E+003	 1.389543701172E+003	 1.287276245117E+003	 3.233669996262E+000	-3.459416259766E+003	 3.268394775391E+002	 2.181930175781E+003	 5.337994384766E+002	 1.322100585938E+003	-6.598763275146E+001	-6.884562011719E+003	 3.809727539062E+003	 1.198238515625E+005	 5.356400146484E+002	 4.933917820454E-001	 0.000000000000E+000	 0.000000000000E+000
    1.5000	 1.200000000000E+001	 0.000000000000E+000	 0.000000000000E+000	 5.975277900696E+000	-9.024440050125E-001	 0.000000000000E+000	 0.000000000000E+000	 1.124912796021E+002	 1.308004951477E+001	 1.268614990234E+003	 7.681250572205E-001	-1.783409342170E-002	 0.000000000000E+000	 2.538885040283E+002	 2.877109863281E+003	 3.355962219238E+002	-1.699191284180E+002	 7.598970947266E+002	 3.699576416016E+003	 1.128240820312E+004	-4.025238418579E+001	 1.689283142090E+002	 1.401824462891E+003	 1.125461547852E+003	 1.329091064453E+003	-1.969624900818E+001	-3.453405761719E+003	 2.625649719238E+002	 2.300041503906E+003	 6.657535400391E+002	 1.472480712891E+003	-2.939853096008E+001	-6.880748046875E+003	 2.739970458984E+003	 1.292254296875E+005	 6.674937133789E+002	 4.886863529682E-001	 0.000000000000E+000	 0.000000000000E+000
    1.6000	 1.200000000000E+001	 0.000000000000E+000	 0.000000000000E+000	 6.003449440002E+000	-9.189699888229E-001	 0.000000000000E+000	 0.000000000000E+000	 1.203646774292E+002	 1.316431808472E+001	 1.273403564453E+003	 7.990902662277E-001	-1.531579904258E-002	 0.000000000000E+000	 2.813201904297E+002	 2.889823730469E+003	 3.410681762695E+002	-1.672447509766E+002	 7.835676269531E+002	 3.738984863281E+003	 1.140379101562E+004	-4.315316390991E+001	 4.001696777344E+002	 1.550276855469E+003	 9.033276367188E+002	 1.371239501953E+003	-2.190021324158E+001	-3.474652343750E+003	 5.146471557617E+002	 2.312210937500E+003	 8.550485229492E+002	 1.552038208008E+003	-6.456212043762E+000	-6.903670898438E+003	 1.750401977539E+003	 1.349392343750E+005	 8.571456298828E+002	 4.866482019424E-001	 0.000000000000E+000	 0.000000000000E+000
    1.7000	 1.200000000000E+001	 0.000000000000E+000	 0.000000000000E+000	 6.029621601105E+000	-8.931022286415E-001	 0.000000000000E+000	 0.000000000000E+000	 1.282872619629E+002	 1.324664402008E+001	 1.283414550781E+003	 8.142504096031E-001	-1.242657005787E-002	 0.000000000000E+000	 2.587881469727E+002	 2.904045166016E+003	 3.453406677246E+002	-1.517059783936E+002	 8.025264892578E+002	 3.467151123047E+003	 1.153454492188E+004	-3.875494384766E+001	 6.483516235352E+002	 1.635297607422E+003	 6.891368408203E+002	 1.433475341797E+003	-7.256771087646E+000	-3.515343750000E+003	 7.432282104492E+002	 2.409536621094E+003	 9.571209106445E+002	 1.511062011719E+003	-1.157819366455E+001	-6.945508789062E+003	 1.489306762695E+003	 1.354954531250E+005	 9.595529785156E+002	 4.874030053616E-001	 0.000000000000E+000	 0.000000000000E+000
    1.8000	 1.200000000000E+001	 0.000000000000E+000	 0.000000000000E+000	 6.040800094604E+000	-8.034202456474E-001	 0.000000000000E+000	 0.000000000000E+000	 1.362666625977E+002	 1.335472869873E+001	 1.295849609375E+003	 8.132001161575E-001	-1.044905185699E-002	 0.000000000000E+000	 1.388262481689E+002	 2.904968261719E+003	 3.450729980469E+002	-1.280836029053E+002	 8.266331787109E+002	 2.856415283203E+003	 1.154945117188E+004	-2.232662010193E+001	 6.734182739258E+002	 1.574601684570E+003	 3.899784545898E+002	 1.424305908203E+003	-1.356021976471E+001	-3.552204589844E+003	 7.791896972656E+002	 2.407313476562E+003	 9.412067871094E+002	 1.521974853516E+003	 9.474815368652E+000	-6.982221679688E+003	 6.924648437500E+002	 1.356089218750E+005	 9.434045410156E+002	 4.910015463829E-001	 0.000000000000E+000	 0.000000000000E+000
    1.9000	 1.200000000000E+001	 0.000000000000E+000	 0.000000000000E+000	 6.020579814911E+000	-6.656695008278E-001	 0.000000000000E+000	 0.000000000000E+000	 1.443108825684E+002	 1.345465660095E+001	 1.307300292969E+003	 7.965680956841E-001	-9.671654552221E-003	 0.000000000000E+000	-5.893051528931E+001	 2.883364501953E+003	 3.429884338379E+002	-1.011879882812E+002	 8.543968505859E+002	 2.038884887695E+003	 1.149053320312E+004	 2.491545677185E+000	 5.399967041016E+002	 1.389032836914E+003	 9.886425781250E+001	 1.366471191406E+003	-1.734857749939E+001	-3.562107666016E+003	 6.413919067383E+002	 2.413650878906E+003	 8.043703613281E+002	 1.541997192383E+003	 1.478010272980E+001	-6.990893066406E+003	 5.096426696777E+002	 1.341653750000E+005	 8.061111450195E+002	 4.953952431679E-001	 0.000000000000E+000	 0.000000000000E+000
    2.0000	 1.200000000000E+001	 0.000000000000E+000	 0.000000000000E+000	 5.970121860504E+000	-5.383177399635E-001	 0.000000000000E+000	 0.000000000000E+000	 1.524093780518E+002	 1.354128360748E+001	 1.315166625977E+003	 7.658665776253E-001	-9.575963951647E-003	 0.000000000000E+000	-2.151147460938E+002	 2.853955566406E+003	 3.401793823242E+002	-6.768871307373E+001	 8.787774658203E+002	 1.198039428711E+003	 1.143700390625E+004	 2.173941421509E+001	 3.266096496582E+002	 1.086682861328E+003	-8.664831542969E+001	 1.334535034180E+003	-3.572232961655E+000	-3.536873046875E+003	 3.808393554688E+002	 2.746450439453E+003	 5.647006225586E+002	 1.429012939453E+003	-1.934986114502E+001	-6.964022949219E+003	 1.496909301758E+003	 1.273977578125E+005	 5.660273437500E+002	 4.984711110592E-001	 0.000000000000E+000	 0.000000000000E+000
    2.1000	 1.200000000000E+001	 0.000000000000E+000	 0.000000000000E+000	 5.902324676514E+000	-4.451987445354E-001	 0.000000000000E+000	 0.000000000000E+000	 1.605617523193E+002	 1.363272857666E+001	 1.320884765625E+003	 7.229306101799E-001	-9.457173757255E-003	 0.000000000000E+000	-3.203772277832E+002	 2.821045166016E+003	 3.339723815918E+002	-4.020082855225E+001	 9.029010009766E+002	 5.686954345703E+002	 1.130810839844E+004	 3.291669464111E+001	 3.452355041504E+002	 6.287772216797E+002	-1.915518798828E+002	 1.276971069336E+003	 3.489596366882E+000	-3.489581054688E+003	 3.621851501465E+002	 3.218779052734E+003	 2.996884460449E+002	 1.294639648438E+003	-2.992653846741E+001	-6.914535644531E+003	 1.778579589844E+003	 1.186122109375E+005	 3.009350585938E+002	 5.015949010849E-001	 0.000000000000E+000	 0.000000000000E+000
    2.2000	 1.200000000000E+001	 0.000000000000E+000	 0.000000000000E+000	 5.830380439758E+000	-3.966636955738E-001	 0.000000000000E+000	 0.000000000000E+000	 1.687680358887E+002	 1.372343063354E+001	 1.328996337891E+003	 6.702600121498E-001	-8.908649906516E-003	 0.000000000000E+000	-3.526333923340E+002	 2.786840087891E+003	 3.254434204102E+002	-1.880991363525E+001	 9.283318481445E+002	 1.831627197266E+002	 1.108705566406E+004	 3.249642181396E+001	 5.420073242188E+002	 1.316020507812E+002	-2.597425231934E+002	 1.159099609375E+003	-8.745417594910E+000	-3.448311035156E+003	 5.719084472656E+002	 3.501259277344E+003	 1.887545623779E+002	 1.229456787109E+003	 4.917630672455E+000	-6.870432617188E+003	 7.220814208984E+002	 1.106337578125E+005	 1.900685882568E+002	 5.035884380341E-001	 0.000000000000E+000	 0.000000000000E+000
    2.3000	 1.200000000000E+001	 0.000000000000E+000	 0.000000000000E+000	 5.766537666321E+000	-3.788619637489E-001	 0.000000000000E+000	 0.000000000000E+000	 1.770348663330E+002	 1.383659934998E+001	 1.340693237305E+003	 6.110435724258E-001	-8.045790717006E-003	 0.000000000000E+000	-3.330886535645E+002	 2.758686767578E+003	 3.169061279297E+002	 8.106632232666E-001	 9.469056396484E+002	-6.495161437988E+001	 1.086935742188E+004	 2.471825408936E+001	 7.145186157227E+002	-2.522351074219E+002	-3.017673950195E+002	 1.056622314453E+003	-7.431966781616E+000	-3.437605224609E+003	 7.483375244141E+002	 3.672686523438E+003	 2.709328918457E+002	 1.107691406250E+003	 1.333485507965E+001	-6.857029296875E+003	 3.444991149902E+002	 1.003710000000E+005	 2.723321228027E+002	 5.050299167633E-001	 0.000000000000E+000	 0.000000000000E+000
    2.4000	 1.200000000000E+001	 0.000000000000E+000	 0.000000000000E+000	 5.669397830963E+000	-3.435628712177E-001	 0.000000000000E+000	 0.000000000000E+000	 1.853723602295E+002	 1.395246219635E+001	 1.354415527344E+003	 5.482556819916E-001	-7.491012569517E-003	 0.000000000000E+000	-3.477947692871E+002	 2.710600585938E+003	 3.097478942871E+002	 1.874570083618E+001	 9.566173706055E+002	-3.511085205078E+002	 1.067331054688E+004	 3.269258117676E+001	 7.328039550781E+002	-5.154095458984E+002	-3.253416748047E+002	 9.795720214844E+002	 2.536983251572E+000	-3.463528076172E+003	 7.611564331055E+002	 3.716646240234E+003	 4.221563110352E+002	 9.274175415039E+002	-3.629136562347E+000	-6.880634765625E+003	 7.298993530273E+002	 8.811597656250E+004	 4.234635925293E+002	 5.087317824364E-001	 0.000000000000E+000	 0.000000000000E+000
    2.5000	 1.200000000000E+001	 0.000000000000E+000	 0.000000000000E+000	 5.588500976562E+000	-2.833396792412E-001	 0.000000000000E+000	 0.000000000000E+000	 1.937763977051E+002	 1.406165599823E+001	 1.366259643555E+003	 4.845139384270E-001	-7.801239844412E-003	 0.000000000000E+000	-4.047307739258E+002	 2.666697021484E+003	 3.073192443848E+002	 4.108075714111E+001	 9.662207031250E+002	-7.798615112305E+002	 1.057805859375E+004	 4.195502090454E+001	 5.373049926758E+002	-5.904959716797E+002	-4.012044372559E+002	 8.699730834961E+002	-8.822909355164E+000	-3.516252929688E+003	 6.039174804688E+002	 3.306110107422E+003	 5.984971313477E+002	 8.239787597656E+002	 6.587094783783E+000	-6.931146484375E+003	 5.352842407227E+002	 7.792659375000E+004	 5.994251098633E+002	 5.111354589462E-001	 0.000000000000E+000	 0.000000000000E+000
    2.6000	 1.200000000000E+001	 0.000000000000E+000	 0.000000000000E+000	 5.560285091400E+000	-2.033122628927E-001	 0.000000000000E+000	 0.000000000000E+000	 2.022457122803E+002	 1.416668033600E+001	 1.374727539062E+003	 4.226419031620E-001	-8.801073767245E-003	 0.000000000000E+000	-5.041152343750E+002	 2.647276855469E+003	 3.138856506348E+002	 6.598519134521E+001	 9.723674926758E+002	-1.328912231445E+003	 1.074493164062E+004	 5.274798965454E+001	 4.101495056152E+002	-3.583046875000E+002	-5.367185058594E+002	 7.579070434570E+002	-1.102459239960E+001	-3.567391845703E+003	 4.834095153809E+002	 2.526455322266E+003	 6.265722045898E+002	 7.538063354492E+002	 2.368722200394E+000	-6.980380371094E+003	 8.031181030273E+002	 6.892053125000E+004	 6.272777099609E+002	 5.110895037651E-001	 0.000000000000E+000	 0.000000000000E+000
    2.7000	 1.200000000000E+001	 0.000000000000E+000	 0.000000000000E+000	 5.591032981873E+000	-1.173113733530E-001	 0.000000000000E+000	 0.000000000000E+000	 2.107734680176E+002	 1.425930213928E+001	 1.382323120117E+003	 3.654566407204E-001	-9.798035956919E-003	 0.000000000000E+000	-6.165452270508E+002	 2.662253173828E+003	 3.224863586426E+002	 9.398096466064E+001	 9.710144653320E+002	-1.961152709961E+003	 1.103893945312E+004	 6.643302154541E+001	 4.349237976074E+002	-3.308898925781E+001	-6.826594848633E+002	 6.880815429688E+002	 3.092899322510E+000	-3.588712890625E+003	 4.663583984375E+002	 1.906212524414E+003	 4.696198730469E+002	 6.236090698242E+002	-2.391947746277E+001	-7.000345703125E+003	 1.636598144531E+003	 5.879857421875E+004	 4.702914733887E+002	 5.121945142746E-001	 0.000000000000E+000	 0.000000000000E+000
    2.8000	 1.200000000000E+001	 0.000000000000E+000	 0.000000000000E+000	 5.678566455841E+000	-3.114346973598E-002	 0.000000000000E+000	 0.000000000000E+000	 2.193601531982E+002	 1.436582756042E+001	 1.391526000977E+003	 3.152857720852E-001	-1.006404217333E-002	 0.000000000000E+000	-7.342103881836E+002	 2.703458740234E+003	 3.252535705566E+002	 1.226723251343E+002	 9.672466430664E+002	-2.622560791016E+003	 1.121610937500E+004	 8.169097137451E+001	 5.816694335938E+002	 7.501611328125E+001	-7.994764404297E+002	 6.198683471680E+002	 4.100994586945E+000	-3.573927978516E+003	 5.998455810547E+002	 1.593868286133E+003	 3.553591918945E+002	 5.108993530273E+002	-1.725406265259E+001	-6.984557128906E+003	 1.454787475586E+003	 4.994339062500E+004	 3.560391235352E+002	 5.130588412285E-001	 0.000000000000E+000	 0.000000000000E+000
    2.9000	 1.200000000000E+001	 0.000000000000E+000	 0.000000000000E+000	 5.794084072113E+000	 4.803769662976E-002	 0.000000000000E+000	 0.000000000000E+000	 2.280134277344E+002	 1.447798824310E+001	 1.403721191406E+003	 2.742098271847E-001	-9.214516729116E-003	 0.000000000000E+000	-8.499007568359E+002	 2.753256591797E+003	 3.231650695801E+002	 1.475700683594E+002	 9.636911621094E+002	-3.220670898438E+003	 1.126887695312E+004	 9.643936920166E+001	 7.167962036133E+002	-3.705920410156E+001	-8.950962524414E+002	 5.377755737305E+002	-4.177918434143E+000	-3.538517333984E+003	 7.581247558594E+002	 1.427846557617E+003	 4.418621826172E+002	 4.619591979980E+002	 8.515666007996E+000	-6.948360351562E+003	 6.164764404297E+002	 4.388763281250E+004	 4.425187072754E+002	 5.133364200592E-001	 0.000000000000E+000	 0.000000000000E+000
    3.0000	 1.200000000000E+001	 0.000000000000E+000	 0.000000000000E+000	 5.906758785248E+000	 9.997871518135E-002	 0.000000000000E+000	 0.000000000000E+000	 2.367336578369E+002	 1.458962631226E+001	 1.416657714844E+003	 2.441142201424E-001	-7.574255112559E-003	 0.000000000000E+000	-9.231778564453E+002	 2.803774658203E+003	 3.215065917969E+002	 1.672657623291E+002	 9.586789550781E+002	-3.659880126953E+003	 1.133543652344E+004	 1.065098342896E+002	 6.540249633789E+002	-1.941538085938E+002	-1.024068725586E+003	 4.926954345703E+002	-2.254205226898E+000	-3.506545410156E+003	 7.149068603516E+002	 1.335026245117E+003	 6.938436889648E+002	 3.979037780762E+002	 5.642072200775E+000	-6.915942382812E+003	 5.054551391602E+002	 3.868950390625E+004	 6.944023437500E+002	 5.136382579803E-001	 0.000000000000E+000	 0.000000000000E+000
    3.1000	 1.200000000000E+001	 0.000000000000E+000	 0.000000000000E+000	 6.005437374115E+000	 1.177516877651E-001	 0.000000000000E+000	 0.000000000000E+000	 2.455195465088E+002	 1.469357204437E+001	 1.427173461914E+003	 2.261942774057E-001	-6.135138217360E-003	 0.000000000000E+000	-9.549287109375E+002	 2.849662353516E+003	 3.225763244629E+002	 1.768442077637E+002	 9.522733154297E+002	-3.847507080078E+003	 1.144809082031E+004	 1.116956405640E+002	 4.826729736328E+002	-3.018552856445E+002	-1.152717895508E+003	 4.813572387695E+002	-8.127403259277E-001	-3.495429931641E+003	 5.600241699219E+002	 1.207638916016E+003	 8.870451049805E+002	 3.357303771973E+002	-3.993271827698E+000	-6.904647460938E+003	 6.313522949219E+002	 3.496538281250E+004	 8.874714965820E+002	 5.147361159325E-001	 0.000000000000E+000	 0.000000000000E+000
    3.2000	 1.200000000000E+001	 0.000000000000E+000	 0.000000000000E+000	 6.095485687256E+000	 9.419430047274E-002	 0.000000000000E+000	 0.000000000000E+000	 2.543619384766E+002	 1.477907562256E+001	 1.434605712891E+003	 2.208984345198E-001	-5.917805712670E-003	 0.000000000000E+000	-9.265053710938E+002	 2.893778320312E+003	 3.240890197754E+002	 1.787315368652E+002	 9.422212524414E+002	-3.780800537109E+003	 1.155433789062E+004	 1.096257400513E+002	 3.392924804688E+002	-3.833338317871E+002	-1.257915283203E+003	 4.651951904297E+002	-1.329142761230E+001	-3.506646972656E+003	 4.456214904785E+002	 9.299884033203E+002	 9.240215454102E+002	 3.528509521484E+002	 9.978181838989E+000	-6.915779296875E+003	 2.604497985840E+002	 3.490612109375E+004	 9.243357543945E+002	 5.163585543633E-001	 0.000000000000E+000	 0.000000000000E+000
    3.3000	 1.200000000000E+001	 0.000000000000E+000	 0.000000000000E+000	 6.183692455292E+000	 3.313851729035E-002	 0.000000000000E+000	 0.000000000000E+000	 2.632541503906E+002	 1.486232376099E+001	 1.440652954102E+003	 2.282034903765E-001	-7.294275797904E-003	 0.000000000000E+000	-8.385498046875E+002	 2.940648193359E+003	 3.241133728027E+002	 1.750684967041E+002	 9.266478881836E+002	-3.511750488281E+003	 1.162344921875E+004	 1.000734786987E+002	 3.496029052734E+002	-4.619124755859E+002	-1.357428344727E+003	 4.688417663574E+002	-1.503152084351E+001	-3.524628662109E+003	 4.468537292480E+002	 6.672319335938E+002	 7.873626708984E+002	 3.963584899902E+002	 7.951728820801E+000	-6.933833984375E+003	 4.802901916504E+002	 3.703314062500E+004	 7.876904296875E+002	 5.188404917717E-001	 0.000000000000E+000	 0.000000000000E+000