
Linearized model: Predictions were generated on 03-Jul-2025 at 08:26:12 using OpenFAST, compiled on Jun 19 2025 at 03:54:01 as a 64-bit application using single precision at commit v4.1.0
 linked with  NWTC Subroutine Library; ElastoDyn; InflowWind; AeroDyn; ServoDyn

Description from the FAST input file: NREL                   MW          - Baseline Wind Turbine (Onshore), Linearization with AeroDyn + ED

Simulation information:
   Simulation time:                     1.0000 s
   Rotor Speed:                         1.3246 rad/s
   Azimuth:                             1.2888 rad
   Wind Speed:                         12.0000 m/s
   Number of continuous states:       228
   Number of discrete states:           0
   Number of constraint states:         0
   Number of inputs:                   60
   Number of outputs:                   1
   Jacobians included in this file?    No

Order of continuous states:
   Row/Column Operating Point                                                   Rotating Frame? Derivative Order Description
   ---------- ---------------                                                   --------------- ---------------- -----------
          1   -1.186788368225E+001                                                     T               2         vind (axial) at blade 1, node 1, m/s
          2    0.000000000000E+000                                                     T               2         vind (tangential) at blade 1, node 1, m/s
          3    0.000000000000E+000                                                     T               2         vind (axial) at blade 1, node 2, m/s
          4    0.000000000000E+000                                                     T               2         vind (tangential) at blade 1, node 2, m/s
          5    0.000000000000E+000                                                     T               2         vind (axial) at blade 1, node 3, m/s
          6    0.000000000000E+000                                                     T               2         vind (tangential) at blade 1, node 3, m/s
          7    0.000000000000E+000                                                     T               2         vind (axial) at blade 1, node 4, m/s
          8    0.000000000000E+000                                                     T               2         vind (tangential) at blade 1, node 4, m/s
          9   -2.573712587357E+000                                                     T               2         vind (axial) at blade 1, node 5, m/s
         10    1.472681164742E+000                                                     T               2         vind (tangential) at blade 1, node 5, m/s
         11   -3.088289499283E+000                                                     T               2         vind (axial) at blade 1, node 6, m/s
         12    1.294386029243E+000                                                     T               2         vind (tangential) at blade 1, node 6, m/s
         13   -2.945983886719E+000                                                     T               2         vind (axial) at blade 1, node 7, m/s
         14    1.025727152824E+000                                                     T               2         vind (tangential) at blade 1, node 7, m/s
         15   -2.905804872513E+000                                                     T               2         vind (axial) at blade 1, node 8, m/s
         16    8.556562662125E-001                                                     T               2         vind (tangential) at blade 1, node 8, m/s
         17   -3.042055368423E+000                                                     T               2         vind (axial) at blade 1, node 9, m/s
         18    7.575783133507E-001                                                     T               2         vind (tangential) at blade 1, node 9, m/s
         19   -3.088480234146E+000                                                     T               2         vind (axial) at blade 1, node 10, m/s
         20    6.682378649712E-001                                                     T               2         vind (tangential) at blade 1, node 10, m/s
         21   -3.302173376083E+000                                                     T               2         vind (axial) at blade 1, node 11, m/s
         22    6.132913231850E-001                                                     T               2         vind (tangential) at blade 1, node 11, m/s
         23   -3.465321302414E+000                                                     T               2         vind (axial) at blade 1, node 12, m/s
         24    5.575423836708E-001                                                     T               2         vind (tangential) at blade 1, node 12, m/s
         25   -3.294656515121E+000                                                     T               2         vind (axial) at blade 1, node 13, m/s
         26    4.784791469574E-001                                                     T               2         vind (tangential) at blade 1, node 13, m/s
         27   -3.427257061005E+000                                                     T               2         vind (axial) at blade 1, node 14, m/s
         28    4.320428371429E-001                                                     T               2         vind (tangential) at blade 1, node 14, m/s
         29   -3.626815319061E+000                                                     T               2         vind (axial) at blade 1, node 15, m/s
         30    3.959096670151E-001                                                     T               2         vind (tangential) at blade 1, node 15, m/s
         31   -3.986388206482E+000                                                     T               2         vind (axial) at blade 1, node 16, m/s
         32    3.761716783047E-001                                                     T               2         vind (tangential) at blade 1, node 16, m/s
         33   -4.222744464874E+000                                                     T               2         vind (axial) at blade 1, node 17, m/s
         34    3.723672032356E-001                                                     T               2         vind (tangential) at blade 1, node 17, m/s
         35   -4.235263824463E+000                                                     T               2         vind (axial) at blade 1, node 18, m/s
         36    3.517633676529E-001                                                     T               2         vind (tangential) at blade 1, node 18, m/s
         37   -9.844603538513E+000                                                     T               2         vind (axial) at blade 1, node 19, m/s
         38    0.000000000000E+000                                                     T               2         vind (tangential) at blade 1, node 19, m/s
         39   -1.151082992554E+001                                                     T               2         vind (axial) at blade 2, node 1, m/s
         40    0.000000000000E+000                                                     T               2         vind (tangential) at blade 2, node 1, m/s
         41    0.000000000000E+000                                                     T               2         vind (axial) at blade 2, node 2, m/s
         42    0.000000000000E+000                                                     T               2         vind (tangential) at blade 2, node 2, m/s
         43    0.000000000000E+000                                                     T               2         vind (axial) at blade 2, node 3, m/s
         44    0.000000000000E+000                                                     T               2         vind (tangential) at blade 2, node 3, m/s
         45    0.000000000000E+000                                                     T               2         vind (axial) at blade 2, node 4, m/s
         46    0.000000000000E+000                                                     T               2         vind (tangential) at blade 2, node 4, m/s
         47   -2.725194454193E+000                                                     T               2         vind (axial) at blade 2, node 5, m/s
         48    1.398954868317E+000                                                     T               2         vind (tangential) at blade 2, node 5, m/s
         49   -3.068266868591E+000                                                     T               2         vind (axial) at blade 2, node 6, m/s
         50    1.171723723412E+000                                                     T               2         vind (tangential) at blade 2, node 6, m/s
         51   -2.837332487106E+000                                                     T               2         vind (axial) at blade 2, node 7, m/s
         52    9.017351269722E-001                                                     T               2         vind (tangential) at blade 2, node 7, m/s
         53   -2.778641462326E+000                                                     T               2         vind (axial) at blade 2, node 8, m/s
         54    7.402225732803E-001                                                     T               2         vind (tangential) at blade 2, node 8, m/s
         55   -2.989003419876E+000                                                     T               2         vind (axial) at blade 2, node 9, m/s
         56    6.588484048843E-001                                                     T               2         vind (tangential) at blade 2, node 9, m/s
         57   -3.050313711166E+000                                                     T               2         vind (axial) at blade 2, node 10, m/s
         58    5.755761265755E-001                                                     T               2         vind (tangential) at blade 2, node 10, m/s
         59   -3.323321580887E+000                                                     T               2         vind (axial) at blade 2, node 11, m/s
         60    5.258469581604E-001                                                     T               2         vind (tangential) at blade 2, node 11, m/s
         61   -3.543152332306E+000                                                     T               2         vind (axial) at blade 2, node 12, m/s
         62    4.746114313602E-001                                                     T               2         vind (tangential) at blade 2, node 12, m/s
         63   -3.393304109573E+000                                                     T               2         vind (axial) at blade 2, node 13, m/s
         64    4.064650833607E-001                                                     T               2         vind (tangential) at blade 2, node 13, m/s
         65   -3.532421827316E+000                                                     T               2         vind (axial) at blade 2, node 14, m/s
         66    3.647247850895E-001                                                     T               2         vind (tangential) at blade 2, node 14, m/s
         67   -3.768427610397E+000                                                     T               2         vind (axial) at blade 2, node 15, m/s
         68    3.291342258453E-001                                                     T               2         vind (tangential) at blade 2, node 15, m/s
         69   -3.876788616180E+000                                                     T               2         vind (axial) at blade 2, node 16, m/s
         70    3.120075762272E-001                                                     T               2         vind (tangential) at blade 2, node 16, m/s
         71   -3.971554279327E+000                                                     T               2         vind (axial) at blade 2, node 17, m/s
         72    2.824830710888E-001                                                     T               2         vind (tangential) at blade 2, node 17, m/s
         73   -3.809879302979E+000                                                     T               2         vind (axial) at blade 2, node 18, m/s
         74    2.612855434418E-001                                                     T               2         vind (tangential) at blade 2, node 18, m/s
         75   -8.201850891113E+000                                                     T               2         vind (axial) at blade 2, node 19, m/s
         76    0.000000000000E+000                                                     T               2         vind (tangential) at blade 2, node 19, m/s
         77   -1.171881961823E+001                                                     T               2         vind (axial) at blade 3, node 1, m/s
         78    0.000000000000E+000                                                     T               2         vind (tangential) at blade 3, node 1, m/s
         79    0.000000000000E+000                                                     T               2         vind (axial) at blade 3, node 2, m/s
         80    0.000000000000E+000                                                     T               2         vind (tangential) at blade 3, node 2, m/s
         81    0.000000000000E+000                                                     T               2         vind (axial) at blade 3, node 3, m/s
         82    0.000000000000E+000                                                     T               2         vind (tangential) at blade 3, node 3, m/s
         83    0.000000000000E+000                                                     T               2         vind (axial) at blade 3, node 4, m/s
         84    0.000000000000E+000                                                     T               2         vind (tangential) at blade 3, node 4, m/s
         85   -2.353259801865E+000                                                     T               2         vind (axial) at blade 3, node 5, m/s
         86    1.445337057114E+000                                                     T               2         vind (tangential) at blade 3, node 5, m/s
         87   -2.949005365372E+000                                                     T               2         vind (axial) at blade 3, node 6, m/s
         88    1.265919208527E+000                                                     T               2         vind (tangential) at blade 3, node 6, m/s
         89   -2.827055454254E+000                                                     T               2         vind (axial) at blade 3, node 7, m/s
         90    9.801234006882E-001                                                     T               2         vind (tangential) at blade 3, node 7, m/s
         91   -2.791359186172E+000                                                     T               2         vind (axial) at blade 3, node 8, m/s
         92    8.009635806084E-001                                                     T               2         vind (tangential) at blade 3, node 8, m/s
         93   -2.938145875931E+000                                                     T               2         vind (axial) at blade 3, node 9, m/s
         94    6.993203759193E-001                                                     T               2         vind (tangential) at blade 3, node 9, m/s
         95   -3.000481843948E+000                                                     T               2         vind (axial) at blade 3, node 10, m/s
         96    6.090376377106E-001                                                     T               2         vind (tangential) at blade 3, node 10, m/s
         97   -3.238918781281E+000                                                     T               2         vind (axial) at blade 3, node 11, m/s
         98    5.540213584900E-001                                                     T               2         vind (tangential) at blade 3, node 11, m/s
         99   -3.440793037415E+000                                                     T               2         vind (axial) at blade 3, node 12, m/s
        100    5.000789761543E-001                                                     T               2         vind (tangential) at blade 3, node 12, m/s
        101   -3.317188024521E+000                                                     T               2         vind (axial) at blade 3, node 13, m/s
        102    4.291435778141E-001                                                     T               2         vind (tangential) at blade 3, node 13, m/s
        103   -3.474216461182E+000                                                     T               2         vind (axial) at blade 3, node 14, m/s
        104    3.851352334023E-001                                                     T               2         vind (tangential) at blade 3, node 14, m/s
        105   -3.699629783630E+000                                                     T               2         vind (axial) at blade 3, node 15, m/s
        106    3.495687544346E-001                                                     T               2         vind (tangential) at blade 3, node 15, m/s
        107   -4.026053428650E+000                                                     T               2         vind (axial) at blade 3, node 16, m/s
        108    3.288712203503E-001                                                     T               2         vind (tangential) at blade 3, node 16, m/s
        109   -4.236442089081E+000                                                     T               2         vind (axial) at blade 3, node 17, m/s
        110    3.201563656330E-001                                                     T               2         vind (tangential) at blade 3, node 17, m/s
        111   -4.182701110840E+000                                                     T               2         vind (axial) at blade 3, node 18, m/s
        112    2.902752459049E-001                                                     T               2         vind (tangential) at blade 3, node 18, m/s
        113   -8.836262702942E+000                                                     T               2         vind (axial) at blade 3, node 19, m/s
        114    0.000000000000E+000                                                     T               2         vind (tangential) at blade 3, node 19, m/s
        115   -4.767035007477E+000                                                     T               2         First time derivative of vind (axial) at blade 1, node 1, m/s/s
        116    0.000000000000E+000                                                     T               2         First time derivative of vind (tangential) at blade 1, node 1, m/s/s
        117    0.000000000000E+000                                                     T               2         First time derivative of vind (axial) at blade 1, node 2, m/s/s
        118    0.000000000000E+000                                                     T               2         First time derivative of vind (tangential) at blade 1, node 2, m/s/s
        119    0.000000000000E+000                                                     T               2         First time derivative of vind (axial) at blade 1, node 3, m/s/s
        120    0.000000000000E+000                                                     T               2         First time derivative of vind (tangential) at blade 1, node 3, m/s/s
        121    0.000000000000E+000                                                     T               2         First time derivative of vind (axial) at blade 1, node 4, m/s/s
        122    0.000000000000E+000                                                     T               2         First time derivative of vind (tangential) at blade 1, node 4, m/s/s
        123   -1.022027850151E+000                                                     T               2         First time derivative of vind (axial) at blade 1, node 5, m/s/s
        124    5.931645035744E-001                                                     T               2         First time derivative of vind (tangential) at blade 1, node 5, m/s/s
        125   -1.235992789268E+000                                                     T               2         First time derivative of vind (axial) at blade 1, node 6, m/s/s
        126    5.246075391769E-001                                                     T               2         First time derivative of vind (tangential) at blade 1, node 6, m/s/s
        127   -1.183935642242E+000                                                     T               2         First time derivative of vind (axial) at blade 1, node 7, m/s/s
        128    4.175743460655E-001                                                     T               2         First time derivative of vind (tangential) at blade 1, node 7, m/s/s
        129   -1.168982982635E+000                                                     T               2         First time derivative of vind (axial) at blade 1, node 8, m/s/s
        130    3.496027290821E-001                                                     T               2         First time derivative of vind (tangential) at blade 1, node 8, m/s/s
        131   -1.217078447342E+000                                                     T               2         First time derivative of vind (axial) at blade 1, node 9, m/s/s
        132    3.099011480808E-001                                                     T               2         First time derivative of vind (tangential) at blade 1, node 9, m/s/s
        133   -1.235398769379E+000                                                     T               2         First time derivative of vind (axial) at blade 1, node 10, m/s/s
        134    2.750373780727E-001                                                     T               2         First time derivative of vind (tangential) at blade 1, node 10, m/s/s
        135   -1.312622189522E+000                                                     T               2         First time derivative of vind (axial) at blade 1, node 11, m/s/s
        136    2.539857625961E-001                                                     T               2         First time derivative of vind (tangential) at blade 1, node 11, m/s/s
        137   -1.368441462517E+000                                                     T               2         First time derivative of vind (axial) at blade 1, node 12, m/s/s
        138    2.334207892418E-001                                                     T               2         First time derivative of vind (tangential) at blade 1, node 12, m/s/s
        139   -1.295988678932E+000                                                     T               2         First time derivative of vind (axial) at blade 1, node 13, m/s/s
        140    2.034146487713E-001                                                     T               2         First time derivative of vind (tangential) at blade 1, node 13, m/s/s
        141   -1.334820151329E+000                                                     T               2         First time derivative of vind (axial) at blade 1, node 14, m/s/s
        142    1.876410394907E-001                                                     T               2         First time derivative of vind (tangential) at blade 1, node 14, m/s/s
        143   -1.401247501373E+000                                                     T               2         First time derivative of vind (axial) at blade 1, node 15, m/s/s
        144    1.768924891949E-001                                                     T               2         First time derivative of vind (tangential) at blade 1, node 15, m/s/s
        145   -1.532367706299E+000                                                     T               2         First time derivative of vind (axial) at blade 1, node 16, m/s/s
        146    1.738812327385E-001                                                     T               2         First time derivative of vind (tangential) at blade 1, node 16, m/s/s
        147   -1.671043872833E+000                                                     T               2         First time derivative of vind (axial) at blade 1, node 17, m/s/s
        148    1.772478967905E-001                                                     T               2         First time derivative of vind (tangential) at blade 1, node 17, m/s/s
        149   -1.772777080536E+000                                                     T               2         First time derivative of vind (axial) at blade 1, node 18, m/s/s
        150    1.759406775236E-001                                                     T               2         First time derivative of vind (tangential) at blade 1, node 18, m/s/s
        151   -4.679669380188E+000                                                     T               2         First time derivative of vind (axial) at blade 1, node 19, m/s/s
        152    0.000000000000E+000                                                     T               2         First time derivative of vind (tangential) at blade 1, node 19, m/s/s
        153   -4.643517017365E+000                                                     T               2         First time derivative of vind (axial) at blade 2, node 1, m/s/s
        154    0.000000000000E+000                                                     T               2         First time derivative of vind (tangential) at blade 2, node 1, m/s/s
        155    0.000000000000E+000                                                     T               2         First time derivative of vind (axial) at blade 2, node 2, m/s/s
        156    0.000000000000E+000                                                     T               2         First time derivative of vind (tangential) at blade 2, node 2, m/s/s
        157    0.000000000000E+000                                                     T               2         First time derivative of vind (axial) at blade 2, node 3, m/s/s
        158    0.000000000000E+000                                                     T               2         First time derivative of vind (tangential) at blade 2, node 3, m/s/s
        159    0.000000000000E+000                                                     T               2         First time derivative of vind (axial) at blade 2, node 4, m/s/s
        160    0.000000000000E+000                                                     T               2         First time derivative of vind (tangential) at blade 2, node 4, m/s/s
        161   -1.091835021973E+000                                                     T               2         First time derivative of vind (axial) at blade 2, node 5, m/s/s
        162    5.659011006355E-001                                                     T               2         First time derivative of vind (tangential) at blade 2, node 5, m/s/s
        163   -1.236136794090E+000                                                     T               2         First time derivative of vind (axial) at blade 2, node 6, m/s/s
        164    4.759162962437E-001                                                     T               2         First time derivative of vind (tangential) at blade 2, node 6, m/s/s
        165   -1.145262122154E+000                                                     T               2         First time derivative of vind (axial) at blade 2, node 7, m/s/s
        166    3.671148717403E-001                                                     T               2         First time derivative of vind (tangential) at blade 2, node 7, m/s/s
        167   -1.122088193893E+000                                                     T               2         First time derivative of vind (axial) at blade 2, node 8, m/s/s
        168    3.020461797714E-001                                                     T               2         First time derivative of vind (tangential) at blade 2, node 8, m/s/s
        169   -1.203285694122E+000                                                     T               2         First time derivative of vind (axial) at blade 2, node 9, m/s/s
        170    2.691786885262E-001                                                     T               2         First time derivative of vind (tangential) at blade 2, node 9, m/s/s
        171   -1.229204654694E+000                                                     T               2         First time derivative of vind (axial) at blade 2, node 10, m/s/s
        172    2.363884449005E-001                                                     T               2         First time derivative of vind (tangential) at blade 2, node 10, m/s/s
        173   -1.332017660141E+000                                                     T               2         First time derivative of vind (axial) at blade 2, node 11, m/s/s
        174    2.170157432556E-001                                                     T               2         First time derivative of vind (tangential) at blade 2, node 11, m/s/s
        175   -1.413999319077E+000                                                     T               2         First time derivative of vind (axial) at blade 2, node 12, m/s/s
        176    1.977992951870E-001                                                     T               2         First time derivative of vind (tangential) at blade 2, node 12, m/s/s
        177   -1.352901339531E+000                                                     T               2         First time derivative of vind (axial) at blade 2, node 13, m/s/s