
Linearized model: Predictions were generated on 03-Jul-2025 at 08:26:15 using OpenFAST, compiled on Jun 19 2025 at 03:54:01 as a 64-bit application using single precision at commit v4.1.0
 linked with  NWTC Subroutine Library; ElastoDyn; InflowWind; AeroDyn; ServoDyn

Description from the FAST input file: NREL                   MW          - Baseline Wind Turbine (Onshore), Linearization with AeroDyn + ED

Simulation information:
   Simulation time:                     1.0000 s
   Rotor Speed:                         1.3243 rad/s
   Azimuth:                             1.2911 rad
   Wind Speed:                         14.0000 m/s
   Number of continuous states:       228
   Number of discrete states:           0
   Number of constraint states:         0
   Number of inputs:                   60
   Number of outputs:                   1
   Jacobians included in this file?    No

Order of continuous states:
   Row/Column Operating Point                                                   Rotating Frame? Derivative Order Description
   ---------- ---------------                                                   --------------- ---------------- -----------
          1   -1.393509960175E+001                                                     T               2         vind (axial) at blade 1, node 1, m/s
          2    0.000000000000E+000                                                     T               2         vind (tangential) at blade 1, node 1, m/s
          3    0.000000000000E+000                                                     T               2         vind (axial) at blade 1, node 2, m/s
          4    0.000000000000E+000                                                     T               2         vind (tangential) at blade 1, node 2, m/s
          5    0.000000000000E+000                                                     T               2         vind (axial) at blade 1, node 3, m/s
          6    0.000000000000E+000                                                     T               2         vind (tangential) at blade 1, node 3, m/s
          7    0.000000000000E+000                                                     T               2         vind (axial) at blade 1, node 4, m/s
          8    0.000000000000E+000                                                     T               2         vind (tangential) at blade 1, node 4, m/s
          9   -2.059815168381E+000                                                     T               2         vind (axial) at blade 1, node 5, m/s
         10    1.500502943993E+000                                                     T               2         vind (tangential) at blade 1, node 5, m/s
         11   -2.136523485184E+000                                                     T               2         vind (axial) at blade 1, node 6, m/s
         12    1.204840183258E+000                                                     T               2         vind (tangential) at blade 1, node 6, m/s
         13   -1.771994113922E+000                                                     T               2         vind (axial) at blade 1, node 7, m/s
         14    8.454650044441E-001                                                     T               2         vind (tangential) at blade 1, node 7, m/s
         15   -1.546649098396E+000                                                     T               2         vind (axial) at blade 1, node 8, m/s
         16    6.345916986465E-001                                                     T               2         vind (tangential) at blade 1, node 8, m/s
         17   -1.533196210861E+000                                                     T               2         vind (axial) at blade 1, node 9, m/s
         18    5.431928038597E-001                                                     T               2         vind (tangential) at blade 1, node 9, m/s
         19   -1.397331237793E+000                                                     T               2         vind (axial) at blade 1, node 10, m/s
         20    4.399344623089E-001                                                     T               2         vind (tangential) at blade 1, node 10, m/s
         21   -1.426656007767E+000                                                     T               2         vind (axial) at blade 1, node 11, m/s
         22    3.987224102020E-001                                                     T               2         vind (tangential) at blade 1, node 11, m/s
         23   -1.392966866493E+000                                                     T               2         vind (axial) at blade 1, node 12, m/s
         24    3.511499166489E-001                                                     T               2         vind (tangential) at blade 1, node 12, m/s
         25   -1.212658882141E+000                                                     T               2         vind (axial) at blade 1, node 13, m/s
         26    2.813929021358E-001                                                     T               2         vind (tangential) at blade 1, node 13, m/s
         27   -1.177800655365E+000                                                     T               2         vind (axial) at blade 1, node 14, m/s
         28    2.501687705517E-001                                                     T               2         vind (tangential) at blade 1, node 14, m/s
         29   -1.188294410706E+000                                                     T               2         vind (axial) at blade 1, node 15, m/s
         30    2.314370721579E-001                                                     T               2         vind (tangential) at blade 1, node 15, m/s
         31   -1.265686869621E+000                                                     T               2         vind (axial) at blade 1, node 16, m/s
         32    2.288445979357E-001                                                     T               2         vind (tangential) at blade 1, node 16, m/s
         33   -1.394394636154E+000                                                     T               2         vind (axial) at blade 1, node 17, m/s
         34    2.367936372757E-001                                                     T               2         vind (tangential) at blade 1, node 17, m/s
         35   -1.482275605202E+000                                                     T               2         vind (axial) at blade 1, node 18, m/s
         36    2.380341142416E-001                                                     T               2         vind (tangential) at blade 1, node 18, m/s
         37   -1.366936683655E+001                                                     T               2         vind (axial) at blade 1, node 19, m/s
         38    0.000000000000E+000                                                     T               2         vind (tangential) at blade 1, node 19, m/s
         39   -1.350833415985E+001                                                     T               2         vind (axial) at blade 2, node 1, m/s
         40    0.000000000000E+000                                                     T               2         vind (tangential) at blade 2, node 1, m/s
         41    0.000000000000E+000                                                     T               2         vind (axial) at blade 2, node 2, m/s
         42    0.000000000000E+000                                                     T               2         vind (tangential) at blade 2, node 2, m/s
         43    0.000000000000E+000                                                     T               2         vind (axial) at blade 2, node 3, m/s
         44    0.000000000000E+000                                                     T               2         vind (tangential) at blade 2, node 3, m/s
         45    0.000000000000E+000                                                     T               2         vind (axial) at blade 2, node 4, m/s
         46    0.000000000000E+000                                                     T               2         vind (tangential) at blade 2, node 4, m/s
         47   -2.106045246124E+000                                                     T               2         vind (axial) at blade 2, node 5, m/s
         48    1.390602707863E+000                                                     T               2         vind (tangential) at blade 2, node 5, m/s
         49   -1.975338935852E+000                                                     T               2         vind (axial) at blade 2, node 6, m/s
         50    1.030208468437E+000                                                     T               2         vind (tangential) at blade 2, node 6, m/s
         51   -1.538748979568E+000                                                     T               2         vind (axial) at blade 2, node 7, m/s
         52    6.789720058441E-001                                                     T               2         vind (tangential) at blade 2, node 7, m/s
         53   -1.285626292229E+000                                                     T               2         vind (axial) at blade 2, node 8, m/s
         54    4.847737550735E-001                                                     T               2         vind (tangential) at blade 2, node 8, m/s
         55   -1.265929460526E+000                                                     T               2         vind (axial) at blade 2, node 9, m/s
         56    4.082319140434E-001                                                     T               2         vind (tangential) at blade 2, node 9, m/s
         57   -1.111643314362E+000                                                     T               2         vind (axial) at blade 2, node 10, m/s
         58    3.159754574299E-001                                                     T               2         vind (tangential) at blade 2, node 10, m/s
         59   -1.149247527122E+000                                                     T               2         vind (axial) at blade 2, node 11, m/s
         60    2.867293953896E-001                                                     T               2         vind (tangential) at blade 2, node 11, m/s
         61   -1.109322667122E+000                                                     T               2         vind (axial) at blade 2, node 12, m/s
         62    2.473266422749E-001                                                     T               2         vind (tangential) at blade 2, node 12, m/s
         63   -9.408676624298E-001                                                     T               2         vind (axial) at blade 2, node 13, m/s
         64    1.913498491049E-001                                                     T               2         vind (tangential) at blade 2, node 13, m/s
         65   -8.955384492874E-001                                                     T               2         vind (axial) at blade 2, node 14, m/s
         66    1.655340343714E-001                                                     T               2         vind (tangential) at blade 2, node 14, m/s
         67   -8.880745172501E-001                                                     T               2         vind (axial) at blade 2, node 15, m/s
         68    1.496610045433E-001                                                     T               2         vind (tangential) at blade 2, node 15, m/s
         69   -9.360578656197E-001                                                     T               2         vind (axial) at blade 2, node 16, m/s
         70    1.458587497473E-001                                                     T               2         vind (tangential) at blade 2, node 16, m/s
         71   -1.021255731583E+000                                                     T               2         vind (axial) at blade 2, node 17, m/s
         72    1.492274999619E-001                                                     T               2         vind (tangential) at blade 2, node 17, m/s
         73   -1.052883625031E+000                                                     T               2         vind (axial) at blade 2, node 18, m/s
         74    1.457507014275E-001                                                     T               2         vind (tangential) at blade 2, node 18, m/s
         75   -1.128455638885E+001                                                     T               2         vind (axial) at blade 2, node 19, m/s
         76    0.000000000000E+000                                                     T               2         vind (tangential) at blade 2, node 19, m/s
         77   -1.376080894470E+001                                                     T               2         vind (axial) at blade 3, node 1, m/s
         78    0.000000000000E+000                                                     T               2         vind (tangential) at blade 3, node 1, m/s
         79    0.000000000000E+000                                                     T               2         vind (axial) at blade 3, node 2, m/s
         80    0.000000000000E+000                                                     T               2         vind (tangential) at blade 3, node 2, m/s
         81    0.000000000000E+000                                                     T               2         vind (axial) at blade 3, node 3, m/s
         82    0.000000000000E+000                                                     T               2         vind (tangential) at blade 3, node 3, m/s
         83    0.000000000000E+000                                                     T               2         vind (axial) at blade 3, node 4, m/s
         84    0.000000000000E+000                                                     T               2         vind (tangential) at blade 3, node 4, m/s
         85   -1.892045140266E+000                                                     T               2         vind (axial) at blade 3, node 5, m/s
         86    1.486197233200E+000                                                     T               2         vind (tangential) at blade 3, node 5, m/s
         87   -2.075190544128E+000                                                     T               2         vind (axial) at blade 3, node 6, m/s
         88    1.202546000481E+000                                                     T               2         vind (tangential) at blade 3, node 6, m/s
         89   -1.705756187439E+000                                                     T               2         vind (axial) at blade 3, node 7, m/s
         90    8.160990476608E-001                                                     T               2         vind (tangential) at blade 3, node 7, m/s
         91   -1.451383471489E+000                                                     T               2         vind (axial) at blade 3, node 8, m/s
         92    5.868105888367E-001                                                     T               2         vind (tangential) at blade 3, node 8, m/s
         93   -1.411608576775E+000                                                     T               2         vind (axial) at blade 3, node 9, m/s
         94    4.854857623577E-001                                                     T               2         vind (tangential) at blade 3, node 9, m/s
         95   -1.254159808159E+000                                                     T               2         vind (axial) at blade 3, node 10, m/s
         96    3.783144056797E-001                                                     T               2         vind (tangential) at blade 3, node 10, m/s
         97   -1.273837327957E+000                                                     T               2         vind (axial) at blade 3, node 11, m/s
         98    3.368595838547E-001                                                     T               2         vind (tangential) at blade 3, node 11, m/s
         99   -1.230792284012E+000                                                     T               2         vind (axial) at blade 3, node 12, m/s
        100    2.902791500092E-001                                                     T               2         vind (tangential) at blade 3, node 12, m/s
        101   -1.056052327156E+000                                                     T               2         vind (axial) at blade 3, node 13, m/s
        102    2.267507314682E-001                                                     T               2         vind (tangential) at blade 3, node 13, m/s
        103   -1.016559481621E+000                                                     T               2         vind (axial) at blade 3, node 14, m/s
        104    1.978453844786E-001                                                     T               2         vind (tangential) at blade 3, node 14, m/s
        105   -1.020772457123E+000                                                     T               2         vind (axial) at blade 3, node 15, m/s
        106    1.805468648672E-001                                                     T               2         vind (tangential) at blade 3, node 15, m/s
        107   -1.086372375488E+000                                                     T               2         vind (axial) at blade 3, node 16, m/s
        108    1.772960424423E-001                                                     T               2         vind (tangential) at blade 3, node 16, m/s
        109   -1.196465849876E+000                                                     T               2         vind (axial) at blade 3, node 17, m/s
        110    1.827154755592E-001                                                     T               2         vind (tangential) at blade 3, node 17, m/s
        111   -1.262560129166E+000                                                     T               2         vind (axial) at blade 3, node 18, m/s
        112    1.819359511137E-001                                                     T               2         vind (tangential) at blade 3, node 18, m/s
        113   -1.227348136902E+001                                                     T               2         vind (axial) at blade 3, node 19, m/s
        114    0.000000000000E+000                                                     T               2         vind (tangential) at blade 3, node 19, m/s
        115   -5.586096286774E+000                                                     T               2         First time derivative of vind (axial) at blade 1, node 1, m/s/s
        116    0.000000000000E+000                                                     T               2         First time derivative of vind (tangential) at blade 1, node 1, m/s/s
        117    0.000000000000E+000                                                     T               2         First time derivative of vind (axial) at blade 1, node 2, m/s/s
        118    0.000000000000E+000                                                     T               2         First time derivative of vind (tangential) at blade 1, node 2, m/s/s
        119    0.000000000000E+000                                                     T               2         First time derivative of vind (axial) at blade 1, node 3, m/s/s
        120    0.000000000000E+000                                                     T               2         First time derivative of vind (tangential) at blade 1, node 3, m/s/s
        121    0.000000000000E+000                                                     T               2         First time derivative of vind (axial) at blade 1, node 4, m/s/s
        122    0.000000000000E+000                                                     T               2         First time derivative of vind (tangential) at blade 1, node 4, m/s/s
        123   -8.208126425743E-001                                                     T               2         First time derivative of vind (axial) at blade 1, node 5, m/s/s
        124    6.039167046547E-001                                                     T               2         First time derivative of vind (tangential) at blade 1, node 5, m/s/s
        125   -8.597915172577E-001                                                     T               2         First time derivative of vind (axial) at blade 1, node 6, m/s/s
        126    4.886286854744E-001                                                     T               2         First time derivative of vind (tangential) at blade 1, node 6, m/s/s
        127   -7.173069715500E-001                                                     T               2         First time derivative of vind (axial) at blade 1, node 7, m/s/s
        128    3.448886275291E-001                                                     T               2         First time derivative of vind (tangential) at blade 1, node 7, m/s/s
        129   -6.288771629333E-001                                                     T               2         First time derivative of vind (axial) at blade 1, node 8, m/s/s
        130    2.602398693562E-001                                                     T               2         First time derivative of vind (tangential) at blade 1, node 8, m/s/s
        131   -6.243647933006E-001                                                     T               2         First time derivative of vind (axial) at blade 1, node 9, m/s/s
        132    2.234973907471E-001                                                     T               2         First time derivative of vind (tangential) at blade 1, node 9, m/s/s
        133   -5.723791122437E-001                                                     T               2         First time derivative of vind (axial) at blade 1, node 10, m/s/s
        134    1.824255436659E-001                                                     T               2         First time derivative of vind (tangential) at blade 1, node 10, m/s/s
        135   -5.853327512741E-001                                                     T               2         First time derivative of vind (axial) at blade 1, node 11, m/s/s
        136    1.661584675312E-001                                                     T               2         First time derivative of vind (tangential) at blade 1, node 11, m/s/s
        137   -5.750071406364E-001                                                     T               2         First time derivative of vind (axial) at blade 1, node 12, m/s/s
        138    1.478038877249E-001                                                     T               2         First time derivative of vind (tangential) at blade 1, node 12, m/s/s
        139   -5.061029195786E-001                                                     T               2         First time derivative of vind (axial) at blade 1, node 13, m/s/s
        140    1.203351318836E-001                                                     T               2         First time derivative of vind (tangential) at blade 1, node 13, m/s/s
        141   -4.982375502586E-001                                                     T               2         First time derivative of vind (axial) at blade 1, node 14, m/s/s
        142    1.090952232480E-001                                                     T               2         First time derivative of vind (tangential) at blade 1, node 14, m/s/s
        143   -5.112789869308E-001                                                     T               2         First time derivative of vind (axial) at blade 1, node 15, m/s/s
        144    1.034193187952E-001                                                     T               2         First time derivative of vind (tangential) at blade 1, node 15, m/s/s
        145   -5.537146925926E-001                                                     T               2         First time derivative of vind (axial) at blade 1, node 16, m/s/s
        146    1.047129705548E-001                                                     T               2         First time derivative of vind (tangential) at blade 1, node 16, m/s/s
        147   -6.195898056030E-001                                                     T               2         First time derivative of vind (axial) at blade 1, node 17, m/s/s
        148    1.106887236238E-001                                                     T               2         First time derivative of vind (tangential) at blade 1, node 17, m/s/s
        149   -6.736717820168E-001                                                     T               2         First time derivative of vind (axial) at blade 1, node 18, m/s/s
        150    1.142772585154E-001                                                     T               2         First time derivative of vind (tangential) at blade 1, node 18, m/s/s
        151   -5.879436016083E+000                                                     T               2         First time derivative of vind (axial) at blade 1, node 19, m/s/s
        152    0.000000000000E+000                                                     T               2         First time derivative of vind (tangential) at blade 1, node 19, m/s/s
        153   -5.439183712006E+000                                                     T               2         First time derivative of vind (axial) at blade 2, node 1, m/s/s
        154    0.000000000000E+000                                                     T               2         First time derivative of vind (tangential) at blade 2, node 1, m/s/s
        155    0.000000000000E+000                                                     T               2         First time derivative of vind (axial) at blade 2, node 2, m/s/s
        156    0.000000000000E+000                                                     T               2         First time derivative of vind (tangential) at blade 2, node 2, m/s/s
        157    0.000000000000E+000                                                     T               2         First time derivative of vind (axial) at blade 2, node 3, m/s/s
        158    0.000000000000E+000                                                     T               2         First time derivative of vind (tangential) at blade 2, node 3, m/s/s
        159    0.000000000000E+000                                                     T               2         First time derivative of vind (axial) at blade 2, node 4, m/s/s
        160    0.000000000000E+000                                                     T               2         First time derivative of vind (tangential) at blade 2, node 4, m/s/s
        161   -8.465235233307E-001                                                     T               2         First time derivative of vind (axial) at blade 2, node 5, m/s/s
        162    5.619364380836E-001                                                     T               2         First time derivative of vind (tangential) at blade 2, node 5, m/s/s
        163   -7.986883521080E-001                                                     T               2         First time derivative of vind (axial) at blade 2, node 6, m/s/s
        164    4.184192717075E-001                                                     T               2         First time derivative of vind (tangential) at blade 2, node 6, m/s/s
        165   -6.245113015175E-001                                                     T               2         First time derivative of vind (axial) at blade 2, node 7, m/s/s
        166    2.768940627575E-001                                                     T               2         First time derivative of vind (tangential) at blade 2, node 7, m/s/s
        167   -5.238217711449E-001                                                     T               2         First time derivative of vind (axial) at blade 2, node 8, m/s/s
        168    1.986039727926E-001                                                     T               2         First time derivative of vind (tangential) at blade 2, node 8, m/s/s
        169   -5.166442990303E-001                                                     T               2         First time derivative of vind (axial) at blade 2, node 9, m/s/s
        170    1.677308082581E-001                                                     T               2         First time derivative of vind (tangential) at blade 2, node 9, m/s/s
        171   -4.566007852554E-001                                                     T               2         First time derivative of vind (axial) at blade 2, node 10, m/s/s
        172    1.308273673058E-001                                                     T               2         First time derivative of vind (tangential) at blade 2, node 10, m/s/s
        173   -4.728706181049E-001                                                     T               2         First time derivative of vind (axial) at blade 2, node 11, m/s/s
        174    1.192002072930E-001                                                     T               2         First time derivative of vind (tangential) at blade 2, node 11, m/s/s
        175   -4.594848752022E-001                                                     T               2         First time derivative of vind (axial) at blade 2, node 12, m/s/s
        176    1.037738993764E-001                                                     T               2         First time derivative of vind (tangential) at blade 2, node 12, m/s/s
        177   -3.943702280521E-001                                                     T               2         First time derivative of vind (axial) at blade 2, node 13, m/s/s