
Linearized model: Predictions were generated on 03-Jul-2025 at 08:26:15 using OpenFAST, compiled on Jun 19 2025 at 03:54:01 as a 64-bit application using single precision at commit v4.1.0
 linked with  NWTC Subroutine Library; ElastoDyn; InflowWind; AeroDyn; ServoDyn

Description from the FAST input file: NREL                   MW          - Baseline Wind Turbine (Onshore), Linearization with AeroDyn + ED

Simulation information:
   Simulation time:                     1.0000 s
   Rotor Speed:                         1.3243 rad/s
   Azimuth:                             1.2911 rad
   Wind Speed:                         14.0000 m/s
   Number of continuous states:       260
   Number of discrete states:           0
   Number of constraint states:         0
   Number of inputs:                   69
   Number of outputs:                  39
   Jacobians included in this file?    No

Order of continuous states:
   Row/Column Operating Point                                                   Rotating Frame? Derivative Order Description
   ---------- ---------------                                                   --------------- ---------------- -----------
          1    2.514554560184E-001                                                     F               2         ED 1st tower fore-aft bending mode DOF (internal DOF index = DOF_TFA1), m
          2    5.862919613719E-003                                                     F               2         ED 1st tower side-to-side bending mode DOF (internal DOF index = DOF_TSS1), m
          3    7.628677121829E-005                                                     F               2         ED 2nd tower fore-aft bending mode DOF (internal DOF index = DOF_TFA2), m
          4    3.010694308614E-005                                                     F               2         ED 2nd tower side-to-side bending mode DOF (internal DOF index = DOF_TSS2), m
          5    1.458445040043E-004                                                     F               2         ED Nacelle yaw DOF (internal DOF index = DOF_Yaw), rad
          6    6.003390789032E+000                                                     F               2         ED Variable speed generator DOF (internal DOF index = DOF_GeAz), rad
          7    9.139824396698E-005                                                     F               2         ED Drivetrain rotational-flexibility DOF (internal DOF index = DOF_DrTr), rad
          8    3.278184890747E+000                                                     T               2         ED 1st flapwise bending-mode DOF of blade 1 (internal DOF index = DOF_BF(1,1)), m
          9    1.835443735123E+000                                                     T               2         ED 1st flapwise bending-mode DOF of blade 2 (internal DOF index = DOF_BF(2,1)), m
         10    2.750607013702E+000                                                     T               2         ED 1st flapwise bending-mode DOF of blade 3 (internal DOF index = DOF_BF(3,1)), m
         11   -5.223431438208E-002                                                     T               2         ED 1st edgewise bending-mode DOF of blade 1 (internal DOF index = DOF_BE(1,1)), m
         12    6.878470182419E-001                                                     T               2         ED 1st edgewise bending-mode DOF of blade 2 (internal DOF index = DOF_BE(2,1)), m
         13    2.538341581821E-001                                                     T               2         ED 1st edgewise bending-mode DOF of blade 3 (internal DOF index = DOF_BE(3,1)), m
         14   -1.070871651173E-001                                                     T               2         ED 2nd flapwise bending-mode DOF of blade 1 (internal DOF index = DOF_BF(1,2)), m
         15    1.760757900774E-002                                                     T               2         ED 2nd flapwise bending-mode DOF of blade 2 (internal DOF index = DOF_BF(2,2)), m
         16   -2.787817828357E-002                                                     T               2         ED 2nd flapwise bending-mode DOF of blade 3 (internal DOF index = DOF_BF(3,2)), m
         17    4.565484225750E-001                                                     F               2         ED First time derivative of 1st tower fore-aft bending mode DOF (internal DOF index = DOF_TFA1), m/s
         18    3.989421576262E-002                                                     F               2         ED First time derivative of 1st tower side-to-side bending mode DOF (internal DOF index = DOF_TSS1), m/s
         19    5.841499660164E-004                                                     F               2         ED First time derivative of 2nd tower fore-aft bending mode DOF (internal DOF index = DOF_TFA2), m/s
         20   -6.664969077974E-006                                                     F               2         ED First time derivative of 2nd tower side-to-side bending mode DOF (internal DOF index = DOF_TSS2), m/s
         21   -2.667260414455E-004                                                     F               2         ED First time derivative of Nacelle yaw DOF (internal DOF index = DOF_Yaw), rad/s
         22    1.321429014206E+000                                                     F               2         ED First time derivative of Variable speed generator DOF (internal DOF index = DOF_GeAz), rad/s
         23    2.877890830860E-003                                                     F               2         ED First time derivative of Drivetrain rotational-flexibility DOF (internal DOF index = DOF_DrTr), rad/s
         24   -7.080436944962E-001                                                     T               2         ED First time derivative of 1st flapwise bending-mode DOF of blade 1 (internal DOF index = DOF_BF(1,1)), m/s
         25   -1.003912925720E+000                                                     T               2         ED First time derivative of 1st flapwise bending-mode DOF of blade 2 (internal DOF index = DOF_BF(2,1)), m/s
         26    2.156555652618E-001                                                     T               2         ED First time derivative of 1st flapwise bending-mode DOF of blade 3 (internal DOF index = DOF_BF(3,1)), m/s
         27    2.171849459410E-001                                                     T               2         ED First time derivative of 1st edgewise bending-mode DOF of blade 1 (internal DOF index = DOF_BE(1,1)), m/s
         28   -1.320621490479E+000                                                     T               2         ED First time derivative of 1st edgewise bending-mode DOF of blade 2 (internal DOF index = DOF_BE(2,1)), m/s
         29    2.990701794624E-001                                                     T               2         ED First time derivative of 1st edgewise bending-mode DOF of blade 3 (internal DOF index = DOF_BE(3,1)), m/s
         30    8.815781772137E-002                                                     T               2         ED First time derivative of 2nd flapwise bending-mode DOF of blade 1 (internal DOF index = DOF_BF(1,2)), m/s
         31   -3.391956090927E-001                                                     T               2         ED First time derivative of 2nd flapwise bending-mode DOF of blade 2 (internal DOF index = DOF_BF(2,2)), m/s
         32    4.679804295301E-002                                                     T               2         ED First time derivative of 2nd flapwise bending-mode DOF of blade 3 (internal DOF index = DOF_BF(3,2)), m/s
         33   -1.393509960175E+001                                                     T               2         AD vind (axial) at blade 1, node 1, m/s
         34    0.000000000000E+000                                                     T               2         AD vind (tangential) at blade 1, node 1, m/s
         35    0.000000000000E+000                                                     T               2         AD vind (axial) at blade 1, node 2, m/s
         36    0.000000000000E+000                                                     T               2         AD vind (tangential) at blade 1, node 2, m/s
         37    0.000000000000E+000                                                     T               2         AD vind (axial) at blade 1, node 3, m/s
         38    0.000000000000E+000                                                     T               2         AD vind (tangential) at blade 1, node 3, m/s
         39    0.000000000000E+000                                                     T               2         AD vind (axial) at blade 1, node 4, m/s
         40    0.000000000000E+000                                                     T               2         AD vind (tangential) at blade 1, node 4, m/s
         41   -2.059815168381E+000                                                     T               2         AD vind (axial) at blade 1, node 5, m/s
         42    1.500502943993E+000                                                     T               2         AD vind (tangential) at blade 1, node 5, m/s
         43   -2.136523485184E+000                                                     T               2         AD vind (axial) at blade 1, node 6, m/s
         44    1.204840183258E+000                                                     T               2         AD vind (tangential) at blade 1, node 6, m/s
         45   -1.771994113922E+000                                                     T               2         AD vind (axial) at blade 1, node 7, m/s
         46    8.454650044441E-001                                                     T               2         AD vind (tangential) at blade 1, node 7, m/s
         47   -1.546649098396E+000                                                     T               2         AD vind (axial) at blade 1, node 8, m/s
         48    6.345916986465E-001                                                     T               2         AD vind (tangential) at blade 1, node 8, m/s
         49   -1.533196210861E+000                                                     T               2         AD vind (axial) at blade 1, node 9, m/s
         50    5.431928038597E-001                                                     T               2         AD vind (tangential) at blade 1, node 9, m/s
         51   -1.397331237793E+000                                                     T               2         AD vind (axial) at blade 1, node 10, m/s
         52    4.399344623089E-001                                                     T               2         AD vind (tangential) at blade 1, node 10, m/s
         53   -1.426656007767E+000                                                     T               2         AD vind (axial) at blade 1, node 11, m/s
         54    3.987224102020E-001                                                     T               2         AD vind (tangential) at blade 1, node 11, m/s
         55   -1.392966866493E+000                                                     T               2         AD vind (axial) at blade 1, node 12, m/s
         56    3.511499166489E-001                                                     T               2         AD vind (tangential) at blade 1, node 12, m/s
         57   -1.212658882141E+000                                                     T               2         AD vind (axial) at blade 1, node 13, m/s
         58    2.813929021358E-001                                                     T               2         AD vind (tangential) at blade 1, node 13, m/s
         59   -1.177800655365E+000                                                     T               2         AD vind (axial) at blade 1, node 14, m/s
         60    2.501687705517E-001                                                     T               2         AD vind (tangential) at blade 1, node 14, m/s
         61   -1.188294410706E+000                                                     T               2         AD vind (axial) at blade 1, node 15, m/s
         62    2.314370721579E-001                                                     T               2         AD vind (tangential) at blade 1, node 15, m/s
         63   -1.265686869621E+000                                                     T               2         AD vind (axial) at blade 1, node 16, m/s
         64    2.288445979357E-001                                                     T               2         AD vind (tangential) at blade 1, node 16, m/s
         65   -1.394394636154E+000                                                     T               2         AD vind (axial) at blade 1, node 17, m/s
         66    2.367936372757E-001                                                     T               2         AD vind (tangential) at blade 1, node 17, m/s
         67   -1.482275605202E+000                                                     T               2         AD vind (axial) at blade 1, node 18, m/s
         68    2.380341142416E-001                                                     T               2         AD vind (tangential) at blade 1, node 18, m/s
         69   -1.366936683655E+001                                                     T               2         AD vind (axial) at blade 1, node 19, m/s
         70    0.000000000000E+000                                                     T               2         AD vind (tangential) at blade 1, node 19, m/s
         71   -1.350833415985E+001                                                     T               2         AD vind (axial) at blade 2, node 1, m/s
         72    0.000000000000E+000                                                     T               2         AD vind (tangential) at blade 2, node 1, m/s
         73    0.000000000000E+000                                                     T               2         AD vind (axial) at blade 2, node 2, m/s
         74    0.000000000000E+000                                                     T               2         AD vind (tangential) at blade 2, node 2, m/s
         75    0.000000000000E+000                                                     T               2         AD vind (axial) at blade 2, node 3, m/s
         76    0.000000000000E+000                                                     T               2         AD vind (tangential) at blade 2, node 3, m/s
         77    0.000000000000E+000                                                     T               2         AD vind (axial) at blade 2, node 4, m/s
         78    0.000000000000E+000                                                     T               2         AD vind (tangential) at blade 2, node 4, m/s
         79   -2.106045246124E+000                                                     T               2         AD vind (axial) at blade 2, node 5, m/s
         80    1.390602707863E+000                                                     T               2         AD vind (tangential) at blade 2, node 5, m/s
         81   -1.975338935852E+000                                                     T               2         AD vind (axial) at blade 2, node 6, m/s
         82    1.030208468437E+000                                                     T               2         AD vind (tangential) at blade 2, node 6, m/s
         83   -1.538748979568E+000                                                     T               2         AD vind (axial) at blade 2, node 7, m/s
         84    6.789720058441E-001                                                     T               2         AD vind (tangential) at blade 2, node 7, m/s
         85   -1.285626292229E+000                                                     T               2         AD vind (axial) at blade 2, node 8, m/s
         86    4.847737550735E-001                                                     T               2         AD vind (tangential) at blade 2, node 8, m/s
         87   -1.265929460526E+000                                                     T               2         AD vind (axial) at blade 2, node 9, m/s
         88    4.082319140434E-001                                                     T               2         AD vind (tangential) at blade 2, node 9, m/s
         89   -1.111643314362E+000                                                     T               2         AD vind (axial) at blade 2, node 10, m/s
         90    3.159754574299E-001                                                     T               2         AD vind (tangential) at blade 2, node 10, m/s
         91   -1.149247527122E+000                                                     T               2         AD vind (axial) at blade 2, node 11, m/s
         92    2.867293953896E-001                                                     T               2         AD vind (tangential) at blade 2, node 11, m/s
         93   -1.109322667122E+000                                                     T               2         AD vind (axial) at blade 2, node 12, m/s
         94    2.473266422749E-001                                                     T               2         AD vind (tangential) at blade 2, node 12, m/s
         95   -9.408676624298E-001                                                     T               2         AD vind (axial) at blade 2, node 13, m/s
         96    1.913498491049E-001                                                     T               2         AD vind (tangential) at blade 2, node 13, m/s
         97   -8.955384492874E-001                                                     T               2         AD vind (axial) at blade 2, node 14, m/s
         98    1.655340343714E-001                                                     T               2         AD vind (tangential) at blade 2, node 14, m/s
         99   -8.880745172501E-001                                                     T               2         AD vind (axial) at blade 2, node 15, m/s
        100    1.496610045433E-001                                                     T               2         AD vind (tangential) at blade 2, node 15, m/s
        101   -9.360578656197E-001                                                     T               2         AD vind (axial) at blade 2, node 16, m/s
        102    1.458587497473E-001                                                     T               2         AD vind (tangential) at blade 2, node 16, m/s
        103   -1.021255731583E+000                                                     T               2         AD vind (axial) at blade 2, node 17, m/s
        104    1.492274999619E-001                                                     T               2         AD vind (tangential) at blade 2, node 17, m/s
        105   -1.052883625031E+000                                                     T               2         AD vind (axial) at blade 2, node 18, m/s
        106    1.457507014275E-001                                                     T               2         AD vind (tangential) at blade 2, node 18, m/s
        107   -1.128455638885E+001                                                     T               2         AD vind (axial) at blade 2, node 19, m/s
        108    0.000000000000E+000                                                     T               2         AD vind (tangential) at blade 2, node 19, m/s
        109   -1.376080894470E+001                                                     T               2         AD vind (axial) at blade 3, node 1, m/s
        110    0.000000000000E+000                                                     T               2         AD vind (tangential) at blade 3, node 1, m/s
        111    0.000000000000E+000                                                     T               2         AD vind (axial) at blade 3, node 2, m/s
        112    0.000000000000E+000                                                     T               2         AD vind (tangential) at blade 3, node 2, m/s
        113    0.000000000000E+000                                                     T               2         AD vind (axial) at blade 3, node 3, m/s
        114    0.000000000000E+000                                                     T               2         AD vind (tangential) at blade 3, node 3, m/s
        115    0.000000000000E+000                                                     T               2         AD vind (axial) at blade 3, node 4, m/s
        116    0.000000000000E+000                                                     T               2         AD vind (tangential) at blade 3, node 4, m/s
        117   -1.892045140266E+000                                                     T               2         AD vind (axial) at blade 3, node 5, m/s
        118    1.486197233200E+000                                                     T               2         AD vind (tangential) at blade 3, node 5, m/s
        119   -2.075190544128E+000                                                     T               2         AD vind (axial) at blade 3, node 6, m/s
        120    1.202546000481E+000                                                     T               2         AD vind (tangential) at blade 3, node 6, m/s
        121   -1.705756187439E+000                                                     T               2         AD vind (axial) at blade 3, node 7, m/s
        122    8.160990476608E-001                                                     T               2         AD vind (tangential) at blade 3, node 7, m/s
        123   -1.451383471489E+000                                                     T               2         AD vind (axial) at blade 3, node 8, m/s
        124    5.868105888367E-001                                                     T               2         AD vind (tangential) at blade 3, node 8, m/s
        125   -1.411608576775E+000                                                     T               2         AD vind (axial) at blade 3, node 9, m/s
        126    4.854857623577E-001                                                     T               2         AD vind (tangential) at blade 3, node 9, m/s
        127   -1.254159808159E+000                                                     T               2         AD vind (axial) at blade 3, node 10, m/s
        128    3.783144056797E-001                                                     T               2         AD vind (tangential) at blade 3, node 10, m/s
        129   -1.273837327957E+000                                                     T               2         AD vind (axial) at blade 3, node 11, m/s
        130    3.368595838547E-001                                                     T               2         AD vind (tangential) at blade 3, node 11, m/s
        131   -1.230792284012E+000                                                     T               2         AD vind (axial) at blade 3, node 12, m/s
        132    2.902791500092E-001                                                     T               2         AD vind (tangential) at blade 3, node 12, m/s
        133   -1.056052327156E+000                                                     T               2         AD vind (axial) at blade 3, node 13, m/s
        134    2.267507314682E-001                                                     T               2         AD vind (tangential) at blade 3, node 13, m/s
        135   -1.016559481621E+000                                                     T               2         AD vind (axial) at blade 3, node 14, m/s
        136    1.978453844786E-001                                                     T               2         AD vind (tangential) at blade 3, node 14, m/s
        137   -1.020772457123E+000                                                     T               2         AD vind (axial) at blade 3, node 15, m/s
        138    1.805468648672E-001                                                     T               2         AD vind (tangential) at blade 3, node 15, m/s
        139   -1.086372375488E+000                                                     T               2         AD vind (axial) at blade 3, node 16, m/s
        140    1.772960424423E-001                                                     T               2         AD vind (tangential) at blade 3, node 16, m/s
        141   -1.196465849876E+000                                                     T               2         AD vind (axial) at blade 3, node 17, m/s
        142    1.827154755592E-001                                                     T               2         AD vind (tangential) at blade 3, node 17, m/s
        143   -1.262560129166E+000                                                     T               2         AD vind (axial) at blade 3, node 18, m/s
        144    1.819359511137E-001                                                     T               2         AD vind (tangential) at blade 3, node 18, m/s
        145   -1.227348136902E+001                                                     T               2         AD vind (axial) at blade 3, node 19, m/s
        146    0.000000000000E+000                                                     T               2         AD vind (tangential) at blade 3, node 19, m/s
        147   -5.586096286774E+000                                                     T               2         AD First time derivative of vind (axial) at blade 1, node 1, m/s/s
        148    0.000000000000E+000                                                     T               2         AD First time derivative of vind (tangential) at blade 1, node 1, m/s/s
        149    0.000000000000E+000                                                     T               2         AD First time derivative of vind (axial) at blade 1, node 2, m/s/s
        150    0.000000000000E+000                                                     T               2         AD First time derivative of vind (tangential) at blade 1, node 2, m/s/s
        151    0.000000000000E+000                                                     T               2         AD First time derivative of vind (axial) at blade 1, node 3, m/s/s
        152    0.000000000000E+000                                                     T               2         AD First time derivative of vind (tangential) at blade 1, node 3, m/s/s
        153    0.000000000000E+000                                                     T               2         AD First time derivative of vind (axial) at blade 1, node 4, m/s/s
        154    0.000000000000E+000                                                     T               2         AD First time derivative of vind (tangential) at blade 1, node 4, m/s/s
        155   -8.208126425743E-001                                                     T               2         AD First time derivative of vind (axial) at blade 1, node 5, m/s/s
        156    6.039167046547E-001                                                     T               2         AD First time derivative of vind (tangential) at blade 1, node 5, m/s/s
        157   -8.597915172577E-001                                                     T               2         AD First time derivative of vind (axial) at blade 1, node 6, m/s/s
        158    4.886286854744E-001                                                     T               2         AD First time derivative of vind (tangential) at blade 1, node 6, m/s/s
        159   -7.173069715500E-001                                                     T               2         AD First time derivative of vind (axial) at blade 1, node 7, m/s/s
        160    3.448886275291E-001                                                     T               2         AD First time derivative of vind (tangential) at blade 1, node 7, m/s/s
        161   -6.288771629333E-001                                                     T               2         AD First time derivative of vind (axial) at blade 1, node 8, m/s/s
        162    2.602398693562E-001                                                     T               2         AD First time derivative of vind (tangential) at blade 1, node 8, m/s/s
        163   -6.243647933006E-001                                                     T               2         AD First time derivative of vind (axial) at blade 1, node 9, m/s/s
        164    2.234973907471E-001                                                     T               2         AD First time derivative of vind (tangential) at blade 1, node 9, m/s/s
        165   -5.723791122437E-001                                                     T               2         AD First time derivative of vind (axial) at blade 1, node 10, m/s/s
        166    1.824255436659E-001                                                     T               2         AD First time derivative of vind (tangential) at blade 1, node 10, m/s/s
        167   -5.853327512741E-001                                                     T               2         AD First time derivative of vind (axial) at blade 1, node 11, m/s/s
        168    1.661584675312E-001                                                     T               2         AD First time derivative of vind (tangential) at blade 1, node 11, m/s/s
        169   -5.750071406364E-001                                                     T               2         AD First time derivative of vind (axial) at blade 1, node 12, m/s/s
        170    1.478038877249E-001                                                     T               2         AD First time derivative of vind (tangential) at blade 1, node 12, m/s/s