
Predictions were generated on 03-Jul-2025 at 08:26:15 using OpenFAST, compiled on Jun 19 2025 at 03:54:01 as a 64-bit application using single precision at commit v4.1.0
 linked with  NWTC Subroutine Library; ElastoDyn; InflowWind; AeroDyn; ServoDyn

Description from the FAST input file: NREL                   MW          - Baseline Wind Turbine (Onshore), Linearization with AeroDyn + ED

Time	Wind1VelX	Wind1VelY	Wind1VelZ	OoPDefl1	IPDefl1	TwstDefl1	BldPitch1	Azimuth	RotSpeed	GenSpeed	TTDspFA	TTDspSS	TTDspTwst	Spn2MLxb1	Spn2MLyb1	RootFxb1	RootFyb1	RootFzb1	RootMxb1	RootMyb1	RootMzb1	RotTorq	LSSGagMya	LSSGagMza	YawBrFxp	YawBrFyp	YawBrFzp	YawBrMxp	YawBrMyp	YawBrMzp	TwrBsFxt	TwrBsFyt	TwrBsFzt	TwrBsMxt	TwrBsMyt	TwrBsMzt	RtAeroCp	GenPwr	GenTq
(s)	(m/s)	(m/s)	(m/s)	(m)	(m)	(deg)	(deg)	(deg)	(rpm)	(rpm)	(m)	(m)	(deg)	(kN-m)	(kN-m)	(kN)	(kN)	(kN)	(kN-m)	(kN-m)	(kN-m)	(kN-m)	(kN-m)	(kN-m)	(kN)	(kN)	(kN)	(kN-m)	(kN-m)	(kN-m)	(kN)	(kN)	(kN)	(kN-m)	(kN-m)	(kN-m)	(-)	(kW)	(kN-m)
    0.0000	 1.400000000000E+001	 0.000000000000E+000	 0.000000000000E+000	 0.000000000000E+000	 0.000000000000E+000	 0.000000000000E+000	 8.699998855591E+000	 0.000000000000E+000	 1.210000133514E+001	 1.173700073242E+003	 0.000000000000E+000	 0.000000000000E+000	 0.000000000000E+000	 6.828983783722E+000	-1.199564170837E+001	 1.403945922852E+001	 6.947847604752E-001	 4.526905822754E+002	-9.768760681152E+000	 1.274635238647E+002	-8.421343409282E-007	 5.639629762300E-006	-1.921891113281E+003	-8.450572204590E+001	 1.261533069611E+001	-1.561331897974E-001	-3.318234130859E+003	-2.334094762802E+000	-3.919866333008E+002	-1.620537295821E-005	-1.482951545715E+001	 4.653673991561E-002	-6.725656250000E+003	-8.996336460114E-001	-3.360994262695E+002	-1.620537295821E-005	 2.541030049324E-001	 0.000000000000E+000	 0.000000000000E+000
    0.1000	 1.400000000000E+001	 0.000000000000E+000	 0.000000000000E+000	 2.161296010017E-001	-9.024024941027E-003	 0.000000000000E+000	 8.699998855591E+000	 7.279096126556E+000	 1.214382648468E+001	 1.175794311523E+003	-1.141113389167E-004	-1.433178840671E-004	 0.000000000000E+000	-1.236169204712E+002	 8.597572326660E+001	 6.331911087036E+001	-1.618945884705E+001	 4.606620178223E+002	 3.295521545410E+001	 1.381378784180E+003	-3.467223739624E+001	 2.449450378418E+002	-1.891190673828E+003	 1.152194061279E+002	-2.708562135696E+000	 5.323935031891E+000	-3.354596191406E+003	 2.271122894287E+002	-5.254196166992E+002	-8.522151184082E+001	 3.925538635254E+001	-1.026523828506E+000	-6.762017089844E+003	-2.223575401306E+001	 1.036291503906E+003	-8.522210693359E+001	 1.925374865532E-001	 0.000000000000E+000	 0.000000000000E+000
    0.2000	 1.400000000000E+001	 0.000000000000E+000	 0.000000000000E+000	 7.133169174194E-001	-9.707558900118E-002	 0.000000000000E+000	 8.699998855591E+000	 1.455966758728E+001	 1.213355159760E+001	 1.179840576172E+003	 1.978806918487E-003	-9.385496377945E-004	 0.000000000000E+000	-2.175924377441E+002	 3.495458374023E+002	 1.247174301147E+002	-2.614053153992E+001	 4.688067932129E+002	 1.956879806519E+001	 3.373174072266E+003	-3.910072708130E+001	 1.162114486694E+002	-1.843442138672E+003	 2.303586120605E+002	 1.742593574524E+001	-1.339693260193E+001	-3.428972412109E+003	 1.287748260498E+002	-6.475438842773E+002	-1.508950500488E+002	 4.599773406982E+001	 2.237420845032E+001	-6.836392089844E+003	-5.336677246094E+002	 1.438129882812E+003	-1.508954162598E+002	 1.731471568346E-001	 0.000000000000E+000	 0.000000000000E+000
    0.3000	 1.400000000000E+001	 0.000000000000E+000	 0.000000000000E+000	 1.376185894012E+000	-2.844597697258E-001	 0.000000000000E+000	 8.699998855591E+000	 2.185463714600E+001	 1.218382263184E+001	 1.180692016602E+003	 1.038088183850E-002	-2.291604876518E-003	 0.000000000000E+000	-2.123164825439E+002	 6.943721313477E+002	 1.657281341553E+002	-4.210251235962E+001	 4.842251892090E+002	 3.203247375488E+002	 4.806940917969E+003	-3.617995452881E+001	 4.763982391357E+001	-1.740599365234E+003	 8.996649169922E+001	 8.099150085449E+001	-4.457308769226E+000	-3.496287597656E+003	 1.017307090759E+001	-4.303497009277E+002	-5.134739990234E+002	-2.194937705994E+001	-3.734622240067E+000	-6.903710937500E+003	 3.597822265625E+002	 5.195672607422E+002	-5.134730834961E+002	 1.934186071157E-001	 0.000000000000E+000	 0.000000000000E+000
    0.4000	 1.400000000000E+001	 0.000000000000E+000	 0.000000000000E+000	 2.057199954987E+000	-5.387105345726E-001	 0.000000000000E+000	 8.699998855591E+000	 2.917129898071E+001	 1.220343112946E+001	 1.182788940430E+003	 2.683878876269E-002	-3.689230652526E-003	 0.000000000000E+000	-1.105447463989E+002	 1.048340332031E+003	 1.743641204834E+002	-6.746652984619E+001	 4.964218139648E+002	 9.802923583984E+002	 5.426215820312E+003	-3.658921432495E+001	 1.692387847900E+002	-1.615970581055E+003	-9.832287597656E+001	 9.831834411621E+001	 1.151735305786E+001	-3.531323486328E+003	 5.736028671265E+001	-2.344563140869E+002	-1.019421203613E+003	 2.184378623962E+001	-3.189595985413E+001	-6.938733398438E+003	 1.271490234375E+003	 3.641753906250E+003	-1.019405334473E+003	 2.107267230749E-001	 0.000000000000E+000	 0.000000000000E+000
    0.5000	 1.400000000000E+001	 0.000000000000E+000	 0.000000000000E+000	 2.579422712326E+000	-7.972631454468E-001	 0.000000000000E+000	 8.699998855591E+000	 3.651165008545E+001	 1.227858829498E+001	 1.187284301758E+003	 5.095796287060E-002	-4.472139757127E-003	 0.000000000000E+000	 7.574256134033E+001	 1.321713378906E+003	 1.757806549072E+002	-9.353901672363E+001	 5.107282104492E+002	 1.787471679688E+003	 5.751077636719E+003	-4.486160659790E+001	 3.709186706543E+002	-1.466813720703E+003	 1.019340820312E+002	 1.013726425171E+002	-9.550221264362E-002	-3.525896728516E+003	 2.815359191895E+002	-1.656907806396E+002	-9.798796997070E+002	 1.347595062256E+002	-2.464936673641E-001	-6.933326660156E+003	 4.534624938965E+002	 9.567319335938E+003	-9.798266601562E+002	 2.163108736277E-001	 0.000000000000E+000	 0.000000000000E+000
    0.6000	 1.400000000000E+001	 0.000000000000E+000	 0.000000000000E+000	 2.874428510666E+000	-9.703529477119E-001	 0.000000000000E+000	 8.699998855591E+000	 4.391027450562E+001	 1.237733745575E+001	 1.197889770508E+003	 8.185797184706E-002	-4.144791048020E-003	 0.000000000000E+000	 1.953757781982E+002	 1.469992309570E+003	 1.880371551514E+002	-1.205226440430E+002	 5.286418457031E+002	 2.492082275391E+003	 6.139619140625E+003	-5.289753723145E+001	 7.514745483398E+002	-1.279893310547E+003	 6.414849243164E+002	 1.765497741699E+002	 5.112145423889E+000	-3.489591308594E+003	 6.809451293945E+002	 2.360448837280E+001	-6.283498535156E+002	 1.502724456787E+002	 1.275729942322E+001	-6.897149902344E+003	-4.448868179321E+001	 1.357430859375E+004	-6.281940307617E+002	 2.194703817368E-001	 0.000000000000E+000	 0.000000000000E+000
    0.7000	 1.400000000000E+001	 0.000000000000E+000	 0.000000000000E+000	 2.996767044067E+000	-1.048799157143E+000	 0.000000000000E+000	 8.699998855591E+000	 5.135946655273E+001	 1.245627880096E+001	 1.211676147461E+003	 1.185959950089E-001	-3.076020162553E-003	 0.000000000000E+000	 2.564215393066E+002	 1.533085815430E+003	 2.050051727295E+002	-1.322904205322E+002	 5.461105346680E+002	 2.802332763672E+003	 6.583530761719E+003	-5.693391799927E+001	 6.479287719727E+002	-8.643700561523E+002	 1.205927001953E+003	 2.610160827637E+002	 5.687681198120E+000	-3.446335693359E+003	 6.353076171875E+002	 2.669228210449E+002	 2.360531806946E+001	 1.774827270508E+002	 9.178297996521E+000	-6.854129394531E+003	-7.172435760498E+001	 1.856706835938E+004	 2.381391143799E+001	 2.241920977831E-001	 0.000000000000E+000	 0.000000000000E+000
    0.8000	 1.400000000000E+001	 0.000000000000E+000	 0.000000000000E+000	 3.043733358383E+000	-1.035948514938E+000	 0.000000000000E+000	 8.699998855591E+000	 5.886133575439E+001	 1.254604244232E+001	 1.220310180664E+003	 1.602410972118E-001	-2.298234496266E-003	 0.000000000000E+000	 1.931236419678E+002	 1.552702636719E+003	 2.140918121338E+002	-1.396206054688E+002	 5.643964843750E+002	 2.775370605469E+003	 6.816299316406E+003	-5.282711410522E+001	 2.982024536133E+002	-2.415611572266E+002	 1.522057983398E+003	 2.981724548340E+002	-3.801559686661E+000	-3.419833007812E+003	 3.728682250977E+002	 4.118947143555E+002	 7.785507202148E+002	 3.150354614258E+002	 8.247713088989E+000	-6.827932617188E+003	-8.107546234131E+001	 2.717939062500E+004	 7.787218017578E+002	 2.319275736809E-001	 0.000000000000E+000	 0.000000000000E+000
    0.9000	 1.400000000000E+001	 0.000000000000E+000	 0.000000000000E+000	 3.055410861969E+000	-9.819884300232E-001	 0.000000000000E+000	 8.699998855591E+000	 6.640454101562E+001	 1.259219360352E+001	 1.223340332031E+003	 2.053737193346E-001	-3.002679673955E-003	 0.000000000000E+000	 9.154379272461E+001	 1.546580200195E+003	 2.140236663818E+002	-1.401217956543E+002	 5.877174682617E+002	 2.551690429688E+003	 6.745063964844E+003	-4.695707321167E+001	 5.331472015381E+001	 3.196855468750E+002	 1.546239379883E+003	 3.610656127930E+002	-1.399817657471E+001	-3.419799316406E+003	 1.911423339844E+002	 6.594063110352E+002	 1.239696411133E+003	 4.137181396484E+002	 8.169165611267E+000	-6.828448242188E+003	 4.321073150635E+001	 3.511853125000E+004	 1.239824462891E+003	 2.416396290064E-001	 0.000000000000E+000	 0.000000000000E+000
    1.0000	 1.400000000000E+001	 0.000000000000E+000	 0.000000000000E+000	 3.024339914322E+000	-9.391481280327E-001	 0.000000000000E+000	 8.699998855591E+000	 7.397419738770E+001	 1.264619922638E+001	 1.224015625000E+003	 2.515317499638E-001	-5.893026478589E-003	 0.000000000000E+000	 5.615386581421E+001	 1.521762695312E+003	 2.128240661621E+002	-1.320788574219E+002	 6.184620361328E+002	 2.308217529297E+003	 6.598958007812E+003	-4.598592376709E+001	 9.718679809570E+001	 6.409730224609E+002	 1.375115356445E+003	 4.606074523926E+002	-1.554745006561E+001	-3.441113037109E+003	 2.433130187988E+002	 9.997180175781E+002	 1.310926513672E+003	 4.469752502441E+002	 3.044413328171E-001	-6.850552246094E+003	 5.770508422852E+002	 4.135619921875E+004	 1.311152221680E+003	 2.414129823446E-001	 0.000000000000E+000	 0.000000000000E+000
    1.1000	 1.400000000000E+001	 0.000000000000E+000	 0.000000000000E+000	 2.955276966095E+000	-9.033539891243E-001	 0.000000000000E+000	 8.699998855591E+000	 8.158395385742E+001	 1.271910285950E+001	 1.229359375000E+003	 2.960119247437E-001	-1.074421871454E-002	 0.000000000000E+000	 2.268028259277E+001	 1.482742065430E+003	 2.133246612549E+002	-1.330657653809E+002	 6.522647094727E+002	 2.234322265625E+003	 6.531265625000E+003	-4.610849761963E+001	 5.025037231445E+002	 6.900494384766E+002	 1.012160583496E+003	 5.175162963867E+002	-9.791462898254E+000	-3.464829833984E+003	 6.008752441406E+002	 1.257400024414E+003	 9.319659423828E+002	 5.554343261719E+002	-8.146214485168E+000	-6.875064941406E+003	 1.279035034180E+003	 4.946025000000E+004	 9.325665283203E+002	 2.369584292173E-001	 0.000000000000E+000	 0.000000000000E+000
    1.2000	 1.400000000000E+001	 0.000000000000E+000	 0.000000000000E+000	 2.868113040924E+000	-8.899371623993E-001	 0.000000000000E+000	 8.699998855591E+000	 8.923759460449E+001	 1.279682445526E+001	 1.241097290039E+003	 3.370056152344E-001	-1.642591506243E-002	 0.000000000000E+000	 3.443387603760E+001	 1.440183837891E+003	 2.150267486572E+002	-1.355520629883E+002	 6.891868286133E+002	 2.282496826172E+003	 6.491625976562E+003	-4.882400512695E+001	 7.007479858398E+002	 6.317255249023E+002	 5.665690917969E+002	 5.567327880859E+002	-1.843787574768E+001	-3.470555419922E+003	 7.742686157227E+002	 1.609273803711E+003	 4.882865905762E+002	 6.746682128906E+002	-2.743677616119E+000	-6.881632812500E+003	 1.750757080078E+003	 5.743544531250E+004	 4.892275695801E+002	 2.346735000610E-001	 0.000000000000E+000	 0.000000000000E+000
    1.3000	 1.400000000000E+001	 0.000000000000E+000	 0.000000000000E+000	 2.785516977310E+000	-8.991021513939E-001	 0.000000000000E+000	 8.699998855591E+000	 9.694440460205E+001	 1.289185142517E+001	 1.253037231445E+003	 3.732198476791E-001	-2.124791778624E-002	 0.000000000000E+000	 8.523796844482E+001	 1.401749633789E+003	 2.162424316406E+002	-1.368079833984E+002	 7.246624145508E+002	 2.412739257812E+003	 6.416321289062E+003	-5.302263259888E+001	 5.546004638672E+002	 5.822929077148E+002	 1.972458496094E+002	 6.350126342773E+002	-1.869993209839E+001	-3.454735107422E+003	 6.078982543945E+002	 2.166756347656E+003	 2.612830505371E+002	 6.881230468750E+002	-2.809407234192E+001	-6.866794921875E+003	 3.029203857422E+003	 6.192015625000E+004	 2.624126892090E+002	 2.346076667309E-001	 0.000000000000E+000	 0.000000000000E+000
    1.4000	 1.400000000000E+001	 0.000000000000E+000	 0.000000000000E+000	 2.712126731873E+000	-9.157524108887E-001	 0.000000000000E+000	 8.699998855591E+000	 1.047016983032E+002	 1.296015357971E+001	 1.260572753906E+003	 4.031085371971E-001	-2.387545444071E-002	 0.000000000000E+000	 1.377385864258E+002	 1.369934936523E+003	 2.137710876465E+002	-1.400131225586E+002	 7.543561401367E+002	 2.591318115234E+003	 6.287541992188E+003	-5.759525680542E+001	 2.501814727783E+002	 5.311932983398E+002	 2.447656250000E+001	 6.938443603516E+002	-1.405911350250E+001	-3.432798828125E+003	 2.914910888672E+002	 2.493596679688E+003	 2.056018524170E+002	 7.155012817383E+002	-6.447953033447E+001	-6.845721191406E+003	 4.379373535156E+003	 6.607556250000E+004	 2.067585144043E+002	 2.329197078943E-001	 0.000000000000E+000	 0.000000000000E+000
    1.5000	 1.400000000000E+001	 0.000000000000E+000	 0.000000000000E+000	 2.638825893402E+000	-9.300563931465E-001	 0.000000000000E+000	 8.699998855591E+000	 1.124942016602E+002	 1.301578617096E+001	 1.262924072266E+003	 4.253628849983E-001	-2.395789511502E-002	 0.000000000000E+000	 1.938830108643E+002	 1.336848388672E+003	 2.107394866943E+002	-1.410378875732E+002	 7.817511596680E+002	 2.729296875000E+003	 6.147883300781E+003	-6.169335556030E+001	 5.859751892090E+001	 5.348862304688E+002	 1.654034423828E+002	 7.049783935547E+002	-2.681439399719E+001	-3.424985107422E+003	 1.318634643555E+002	 2.277706542969E+003	 2.687088317871E+002	 8.176027832031E+002	-5.469775009155E+001	-6.838464355469E+003	 4.147667968750E+003	 7.145747656250E+004	 2.697950439453E+002	 2.308915257454E-001	 0.000000000000E+000	 0.000000000000E+000
    1.6000	 1.400000000000E+001	 0.000000000000E+000	 0.000000000000E+000	 2.564338684082E+000	-9.217740297318E-001	 0.000000000000E+000	 8.699998855591E+000	 1.203214416504E+002	 1.307483959198E+001	 1.265159790039E+003	 4.392916858196E-001	-2.212366834283E-002	 0.000000000000E+000	 2.194478759766E+002	 1.300670654297E+003	 2.088119506836E+002	-1.365554046631E+002	 8.042623291016E+002	 2.723799316406E+003	 6.042666992188E+003	-6.342315292358E+001	 2.358699493408E+002	 6.164028320312E+002	 5.785988769531E+002	 7.345260620117E+002	-3.373282241821E+001	-3.441634277344E+003	 3.209194335938E+002	 1.831860229492E+003	 2.444513854980E+002	 8.556642456055E+002	-3.008174514771E+001	-6.855587402344E+003	 3.207371093750E+003	 7.413810156250E+004	 2.456398468018E+002	 2.297728806734E-001	 0.000000000000E+000	 0.000000000000E+000
    1.7000	 1.400000000000E+001	 0.000000000000E+000	 0.000000000000E+000	 2.491261959076E+000	-8.743087053299E-001	 0.000000000000E+000	 8.699998855591E+000	 1.281856384277E+002	 1.314310836792E+001	 1.272276367188E+003	 4.442918002605E-001	-1.968977600336E-002	 0.000000000000E+000	 1.987658233643E+002	 1.263798461914E+003	 2.052231903076E+002	-1.208373565674E+002	 8.232391357422E+002	 2.437209960938E+003	 5.932503417969E+003	-6.187911605835E+001	 5.239442138672E+002	 7.250881958008E+002	 9.562286376953E+002	 7.722234497070E+002	-2.870679473877E+001	-3.477894531250E+003	 5.870202636719E+002	 1.459015380859E+003	 1.064724960327E+002	 8.300234985352E+002	-1.877096748352E+001	-6.892139648438E+003	 2.545246337891E+003	 7.402217187500E+004	 1.078020248413E+002	 2.302066534758E-001	 0.000000000000E+000	 0.000000000000E+000
    1.8000	 1.400000000000E+001	 0.000000000000E+000	 0.000000000000E+000	 2.414861202240E+000	-7.676543593407E-001	 0.000000000000E+000	 8.699998855591E+000	 1.360982055664E+002	 1.323406410217E+001	 1.283459228516E+003	 4.399465620518E-001	-1.791995763779E-002	 0.000000000000E+000	 8.916403961182E+001	 1.215017456055E+003	 1.988944244385E+002	-9.778841400146E+001	 8.461082153320E+002	 1.840617553711E+003	 5.746162109375E+003	-5.583195877075E+001	 6.514133911133E+002	 7.845922241211E+002	 1.025985107422E+003	 7.541917724609E+002	-2.755023384094E+001	-3.514224121094E+003	 7.002778930664E+002	 1.201384887695E+003	-2.710743331909E+001	 8.520339355469E+002	-8.392329216003E+000	-6.928280273438E+003	 2.036438476562E+003	 7.411771875000E+004	-2.581033325195E+001	 2.323326617479E-001	 0.000000000000E+000	 0.000000000000E+000
    1.9000	 1.400000000000E+001	 0.000000000000E+000	 0.000000000000E+000	 2.324916362762E+000	-6.136245131493E-001	 0.000000000000E+000	 8.699998855591E+000	 1.440651092529E+002	 1.331958007812E+001	 1.294611083984E+003	 4.265994429588E-001	-1.728001236916E-002	 0.000000000000E+000	-9.025248718262E+001	 1.151049682617E+003	 1.919788513184E+002	-6.940534210205E+001	 8.713848876953E+002	 1.022375000000E+003	 5.534423828125E+003	-4.757180023193E+001	 5.136888427734E+002	 7.592580566406E+002	 7.723740844727E+002	 7.143406372070E+002	-3.004337882996E+001	-3.526028564453E+003	 5.644984741211E+002	 1.257428222656E+003	-6.521456909180E+001	 8.529781494141E+002	-6.127011299133E+000	-6.939583496094E+003	 1.948921508789E+003	 7.255323437500E+004	-6.415097808838E+001	 2.347497493029E-001	 0.000000000000E+000	 0.000000000000E+000
    2.0000	 1.400000000000E+001	 0.000000000000E+000	 0.000000000000E+000	 2.218132257462E+000	-4.606077373028E-001	 0.000000000000E+000	 8.699998855591E+000	 1.520792388916E+002	 1.339305019379E+001	 1.301532470703E+003	 4.051702022552E-001	-1.732114516199E-002	 0.000000000000E+000	-2.532825164795E+002	 1.084109008789E+003	 1.839452972412E+002	-3.741131591797E+001	 8.940994873047E+002	 1.894630737305E+002	 5.331405761719E+003	-4.181424713135E+001	 2.453961791992E+002	 5.718618164062E+002	 3.092102050781E+002	 6.937216186523E+002	-2.335739135742E+001	-3.500863769531E+003	 2.914318542480E+002	 1.762949584961E+003	 2.136177062988E+001	 7.573386840820E+002	-2.857579994202E+001	-6.913804199219E+003	 2.640257324219E+003	 6.734416406250E+004	 2.217845153809E+001	 2.359203249216E-001	 0.000000000000E+000	 0.000000000000E+000
    2.1000	 1.400000000000E+001	 0.000000000000E+000	 0.000000000000E+000	 2.097476243973E+000	-3.469747006893E-001	 0.000000000000E+000	 8.699998855591E+000	 1.601350402832E+002	 1.345771980286E+001	 1.304940429688E+003	 3.768713176250E-001	-1.723689585924E-002	 0.000000000000E+000	-3.510364990234E+002	 1.017806884766E+003	 1.725330810547E+002	-1.128368377686E+001	 9.163987426758E+002	-4.113321533203E+002	 5.047714843750E+003	-4.115492248535E+001	 1.712194366455E+002	 1.625080566406E+002	-2.053903198242E+002	 6.453856201172E+002	-1.440149021149E+001	-3.450341308594E+003	 2.156737670898E+002	 2.408755371094E+003	 2.044603118896E+002	 6.708197631836E+002	-4.497263336182E+001	-6.862477050781E+003	 3.096416503906E+003	 6.157645312500E+004	 2.052250518799E+002	 2.367809712887E-001	 0.000000000000E+000	 0.000000000000E+000
    2.2000	 1.400000000000E+001	 0.000000000000E+000	 0.000000000000E+000	 1.967727780342E+000	-2.881996631622E-001	 0.000000000000E+000	 8.699998855591E+000	 1.682280731201E+002	 1.352127552032E+001	 1.309265258789E+003	 3.434279561043E-001	-1.653235405684E-002	 0.000000000000E+000	-3.556392211914E+002	 9.546373901367E+002	 1.582922821045E+002	 8.745697975159E+000	 9.378664550781E+002	-7.262031860352E+002	 4.671878417969E+003	-4.670514678955E+001	 3.253284606934E+002	-3.511138916016E+002	-5.861616821289E+002	 5.620532226562E+002	-1.946145820618E+001	-3.402059326172E+003	 4.004297485352E+002	 2.893444580078E+003	 4.553595886230E+002	 6.290311889648E+002	-2.277284049988E+001	-6.813231445312E+003	 2.368015136719E+003	 5.646940234375E+004	 4.561792907715E+002	 2.359624505043E-001	 0.000000000000E+000	 0.000000000000E+000
    2.3000	 1.400000000000E+001	 0.000000000000E+000	 0.000000000000E+000	 1.834361553192E+000	-2.624033689499E-001	 0.000000000000E+000	 8.699998855591E+000	 1.763648223877E+002	 1.360429668427E+001	 1.317417480469E+003	 3.068551421165E-001	-1.529877912253E-002	 0.000000000000E+000	-3.081936645508E+002	 8.936831665039E+002	 1.435144958496E+002	 2.465207481384E+001	 9.516784057617E+002	-8.642747802734E+002	 4.276898925781E+003	-5.358524322510E+001	 5.548069458008E+002	-8.152353515625E+002	-6.916405639648E+002	 5.002343444824E+002	-2.138533592224E+001	-3.381706298828E+003	 6.501765136719E+002	 3.237302246094E+003	 6.585585327148E+002	 5.382962646484E+002	-2.715307474136E+000	-6.792042480469E+003	 1.615928222656E+003	 4.968196093750E+004	 6.594310913086E+002	 2.342117428780E-001	 0.000000000000E+000	 0.000000000000E+000
    2.4000	 1.400000000000E+001	 0.000000000000E+000	 0.000000000000E+000	 1.683691978455E+000	-2.241020202637E-001	 0.000000000000E+000	 8.699998855591E+000	 1.845549316406E+002	 1.369618701935E+001	 1.328812500000E+003	 2.688037157059E-001	-1.414227206260E-002	 0.000000000000E+000	-2.817944030762E+002	 8.172131958008E+002	 1.300249328613E+002	 3.898704147339E+001	 9.588108520508E+002	-1.014111755371E+003	 3.884726074219E+003	-4.984079360962E+001	 6.400590820312E+002	-1.169721069336E+003	-4.858718872070E+002	 4.504037475586E+002	-1.499312400818E+001	-3.401154052734E+003	 7.235934448242E+002	 3.382287109375E+003	 6.612601928711E+002	 4.275328063965E+002	-7.429778099060E+000	-6.810802734375E+003	 1.587580200195E+003	 4.220474218750E+004	 6.620609130859E+002	 2.387419044971E-001	 0.000000000000E+000	 0.000000000000E+000
    2.5000	 1.400000000000E+001	 0.000000000000E+000	 0.000000000000E+000	 1.544021010399E+000	-1.482926011086E-001	 0.000000000000E+000	 8.699998855591E+000	 1.927995300293E+002	 1.378455829620E+001	 1.339462524414E+003	 2.306604385376E-001	-1.367277931422E-002	 0.000000000000E+000	-3.190367736816E+002	 7.376879882812E+002	 1.249530105591E+002	 5.846156692505E+001	 9.647160644531E+002	-1.373959838867E+003	 3.685675292969E+003	-4.604837799072E+001	 4.852008666992E+002	-1.201002441406E+003	-1.180358276367E+002	 3.794504089355E+002	-1.853260231018E+001	-3.452587158203E+003	 5.618195800781E+002	 3.071402832031E+003	 4.919606628418E+002	 3.778279724121E+002	-8.256575584412E+000	-6.861593261719E+003	 1.601732299805E+003	 3.645307421875E+004	 4.925395507812E+002	 2.403322905302E-001	 0.000000000000E+000	 0.000000000000E+000
    2.6000	 1.400000000000E+001	 0.000000000000E+000	 0.000000000000E+000	 1.455477952957E+000	-3.914642333984E-002	 0.000000000000E+000	 8.699998855591E+000	 2.010938110352E+002	 1.386018943787E+001	 1.346335083008E+003	 1.940013766289E-001	-1.389276795089E-002	 0.000000000000E+000	-4.307001037598E+002	 6.814745483398E+002	 1.300567169189E+002	 8.375338745117E+001	 9.661219482422E+002	-1.971406372070E+003	 3.792009277344E+003	-4.377768707275E+001	 2.706341857910E+002	-8.432850341797E+002	 2.207187500000E+002	 3.161311645508E+002	-2.247035026550E+001	-3.507435058594E+003	 3.253729553223E+002	 2.470322021484E+003	 1.424608306885E+002	 3.373315429688E+002	-1.243734645844E+001	-6.915935546875E+003	 1.810370605469E+003	 3.116461328125E+004	 1.428329467773E+002	 2.376509457827E-001	 0.000000000000E+000	 0.000000000000E+000
    2.7000	 1.400000000000E+001	 0.000000000000E+000	 0.000000000000E+000	 1.442162752151E+000	 7.321333140135E-002	 0.000000000000E+000	 8.699998855591E+000	 2.094289398193E+002	 1.392265129089E+001	 1.350332275391E+003	 1.603845804930E-001	-1.417160592973E-002	 0.000000000000E+000	-5.721860961914E+002	 6.665481567383E+002	 1.351898498535E+002	 1.130453262329E+002	 9.618663940430E+002	-2.696676269531E+003	 3.977690185547E+003	-4.012457275391E+001	 1.965794982910E+002	-4.130592041016E+002	 3.746431884766E+002	 2.790224609375E+002	-1.340767860413E+001	-3.535605957031E+003	 2.037680969238E+002	 2.011432128906E+003	-2.001999206543E+002	 2.578656921387E+002	-3.197546386719E+001	-6.943773925781E+003	 2.408842285156E+003	 2.514691601562E+004	-1.999199829102E+002	 2.347713708878E-001	 0.000000000000E+000	 0.000000000000E+000
    2.8000	 1.400000000000E+001	 0.000000000000E+000	 0.000000000000E+000	 1.500139832497E+000	 1.637224555016E-001	 0.000000000000E+000	 8.699998855591E+000	 2.178020935059E+002	 1.399000453949E+001	 1.354881958008E+003	 1.310264468193E-001	-1.373660471290E-002	 0.000000000000E+000	-7.006346435547E+002	 6.876472167969E+002	 1.334319763184E+002	 1.427352142334E+002	 9.566852416992E+002	-3.408764648438E+003	 4.027251464844E+003	-3.595794677734E+001	 3.278988952637E+002	-2.100450439453E+002	 2.534439697266E+002	 2.377738800049E+002	-6.365305423737E+000	-3.527007568359E+003	 3.169790954590E+002	 1.740011108398E+003	-2.351862640381E+002	 1.976279449463E+002	-3.322325515747E+001	-6.934937500000E+003	 2.366703857422E+003	 2.013552539062E+004	-2.349179534912E+002	 2.320515215397E-001	 0.000000000000E+000	 0.000000000000E+000
    2.9000	 1.400000000000E+001	 0.000000000000E+000	 0.000000000000E+000	 1.592587709427E+000	 2.266742140055E-001	 0.000000000000E+000	 8.699998855591E+000	 2.262191925049E+002	 1.406864738464E+001	 1.362887817383E+003	 1.069429591298E-001	-1.218442246318E-002	 0.000000000000E+000	-8.040689086914E+002	 7.246903076172E+002	 1.284228668213E+002	 1.675291290283E+002	 9.517409057617E+002	-3.988904296875E+003	 4.000412597656E+003	-3.234452819824E+001	 5.313370971680E+002	-2.241071777344E+002	-1.271822509766E+002	 1.911815032959E+002	-9.878212928772E+000	-3.492096923828E+003	 5.553193359375E+002	 1.473858398438E+003	 1.012933807373E+002	 1.731723327637E+002	-7.453806400299E+000	-6.899850585938E+003	 1.429556518555E+003	 1.672358593750E+004	 1.015542068481E+002	 2.279009073973E-001	 0.000000000000E+000	 0.000000000000E+000
    3.0000	 1.400000000000E+001	 0.000000000000E+000	 0.000000000000E+000	 1.684290289879E+000	 2.591536045074E-001	 0.000000000000E+000	 8.699998855591E+000	 2.346860504150E+002	 1.415466594696E+001	 1.373487792969E+003	 8.896757662296E-002	-9.801369160414E-003	 0.000000000000E+000	-8.690180664062E+002	 7.651362304688E+002	 1.261830520630E+002	 1.848653717041E+002	 9.455483398438E+002	-4.369047851562E+003	 4.044039550781E+003	-2.957223129272E+001	 5.815885620117E+002	-3.097718505859E+002	-6.463583984375E+002	 1.698687438965E+002	-1.021613216400E+001	-3.454389892578E+003	 6.513832397461E+002	 1.143582031250E+003	 6.155585937500E+002	 1.373962554932E+002	 5.216282844543E+000	-6.862060058594E+003	 7.813829956055E+002	 1.371915429688E+004	 6.157772216797E+002	 2.233581990004E-001	 0.000000000000E+000	 0.000000000000E+000
    3.1000	 1.400000000000E+001	 0.000000000000E+000	 0.000000000000E+000	 1.764719486237E+000	 2.588175237179E-001	 0.000000000000E+000	 8.699998855591E+000	 2.432035369873E+002	 1.423440170288E+001	 1.383042358398E+003	 7.755835354328E-002	-7.548836991191E-003	 0.000000000000E+000	-8.900731811523E+002	 8.044915771484E+002	 1.280422668457E+002	 1.935024261475E+002	 9.382262573242E+002	-4.515520507812E+003	 4.170245117188E+003	-2.765629577637E+001	 4.279553527832E+002	-3.895469970703E+002	-1.078533325195E+003	 1.633808135986E+002	-7.792974948883E+000	-3.435549560547E+003	 5.284340209961E+002	 7.637121582031E+002	 9.928116455078E+002	 1.106464080811E+002	-8.316965699196E-001	-6.843185546875E+003	 7.099064941406E+002	 1.173183398438E+004	 9.929652709961E+002	 2.190873920918E-001	 0.000000000000E+000	 0.000000000000E+000
    3.2000	 1.400000000000E+001	 0.000000000000E+000	 0.000000000000E+000	 1.841733098030E+000	 2.228572070599E-001	 0.000000000000E+000	 8.699998855591E+000	 2.517635192871E+002	 1.429602241516E+001	 1.388800781250E+003	 7.286456972361E-002	-6.547977216542E-003	 0.000000000000E+000	-8.618757934570E+002	 8.470593261719E+002	 1.306242065430E+002	 1.949988250732E+002	 9.269441528320E+002	-4.439603515625E+003	 4.307778808594E+003	-2.686338233948E+001	 2.036689300537E+002	-4.699735717773E+002	-1.268153564453E+003	 1.506118774414E+002	-1.516339015961E+001	-3.442177978516E+003	 3.315879211426E+002	 4.249402465820E+002	 1.116985717773E+003	 1.268116455078E+002	 2.471477508545E+000	-6.849789550781E+003	 5.570549926758E+002	 1.169964648438E+004	 1.117080688477E+003	 2.152772545815E-001	 0.000000000000E+000	 0.000000000000E+000
    3.3000	 1.400000000000E+001	 0.000000000000E+000	 0.000000000000E+000	 1.923436284065E+000	 1.559087932110E-001	 0.000000000000E+000	 8.699998855591E+000	 2.603566589355E+002	 1.434706783295E+001	 1.391457031250E+003	 7.484497874975E-002	-7.374291308224E-003	 0.000000000000E+000	-7.904609375000E+002	 8.964377441406E+002	 1.321625671387E+002	 1.910000152588E+002	 9.095588989258E+002	-4.191841308594E+003	 4.420357910156E+003	-2.730588531494E+001	 1.226905975342E+002	-5.254690551758E+002	-1.171909912109E+003	 1.497529907227E+002	-1.976885223389E+001	-3.462114501953E+003	 2.467956085205E+002	 3.396481933594E+002	 9.674783325195E+002	 1.420482025146E+002	 2.685348510742E+000	-6.869732910156E+003	 6.762583618164E+002	 1.238729785156E+004	 9.675582275391E+002	 2.118003070354E-001	 0.000000000000E+000	 0.000000000000E+000