
Linearized model: Predictions were generated on 03-Jul-2025 at 08:26:15 using OpenFAST, compiled on Jun 19 2025 at 03:54:01 as a 64-bit application using single precision at commit v4.1.0
 linked with  NWTC Subroutine Library; ElastoDyn; InflowWind; AeroDyn; ServoDyn

Description from the FAST input file: NREL                   MW          - Baseline Wind Turbine (Onshore), Linearization with AeroDyn + ED

Simulation information:
   Simulation time:                     1.0000 s
   Rotor Speed:                         1.3423 rad/s
   Azimuth:                             1.3001 rad
   Wind Speed:                         16.0000 m/s
   Number of continuous states:       228
   Number of discrete states:           0
   Number of constraint states:         0
   Number of inputs:                   60
   Number of outputs:                   1
   Jacobians included in this file?    No

Order of continuous states:
   Row/Column Operating Point                                                   Rotating Frame? Derivative Order Description
   ---------- ---------------                                                   --------------- ---------------- -----------
          1   -1.592564105988E+001                                                     T               2         vind (axial) at blade 1, node 1, m/s
          2    0.000000000000E+000                                                     T               2         vind (tangential) at blade 1, node 1, m/s
          3    0.000000000000E+000                                                     T               2         vind (axial) at blade 1, node 2, m/s
          4    0.000000000000E+000                                                     T               2         vind (tangential) at blade 1, node 2, m/s
          5    0.000000000000E+000                                                     T               2         vind (axial) at blade 1, node 3, m/s
          6    0.000000000000E+000                                                     T               2         vind (tangential) at blade 1, node 3, m/s
          7    0.000000000000E+000                                                     T               2         vind (axial) at blade 1, node 4, m/s
          8    0.000000000000E+000                                                     T               2         vind (tangential) at blade 1, node 4, m/s
          9   -2.019044876099E+000                                                     T               2         vind (axial) at blade 1, node 5, m/s
         10    1.694082736969E+000                                                     T               2         vind (tangential) at blade 1, node 5, m/s
         11   -2.194732189178E+000                                                     T               2         vind (axial) at blade 1, node 6, m/s
         12    1.419758796692E+000                                                     T               2         vind (tangential) at blade 1, node 6, m/s
         13   -1.865503311157E+000                                                     T               2         vind (axial) at blade 1, node 7, m/s
         14    1.018417239189E+000                                                     T               2         vind (tangential) at blade 1, node 7, m/s
         15   -1.624692916870E+000                                                     T               2         vind (axial) at blade 1, node 8, m/s
         16    7.639469504356E-001                                                     T               2         vind (tangential) at blade 1, node 8, m/s
         17   -1.563840746880E+000                                                     T               2         vind (axial) at blade 1, node 9, m/s
         18    6.380380988121E-001                                                     T               2         vind (tangential) at blade 1, node 9, m/s
         19   -1.405472874641E+000                                                     T               2         vind (axial) at blade 1, node 10, m/s
         20    5.103895068169E-001                                                     T               2         vind (tangential) at blade 1, node 10, m/s
         21   -1.392167568207E+000                                                     T               2         vind (axial) at blade 1, node 11, m/s
         22    4.507145285606E-001                                                     T               2         vind (tangential) at blade 1, node 11, m/s
         23   -1.331841111183E+000                                                     T               2         vind (axial) at blade 1, node 12, m/s
         24    3.899538218975E-001                                                     T               2         vind (tangential) at blade 1, node 12, m/s
         25   -1.140209078789E+000                                                     T               2         vind (axial) at blade 1, node 13, m/s
         26    3.074066638947E-001                                                     T               2         vind (tangential) at blade 1, node 13, m/s
         27   -1.088740825653E+000                                                     T               2         vind (axial) at blade 1, node 14, m/s
         28    2.693873643875E-001                                                     T               2         vind (tangential) at blade 1, node 14, m/s
         29   -1.081796884537E+000                                                     T               2         vind (axial) at blade 1, node 15, m/s
         30    2.463019043207E-001                                                     T               2         vind (tangential) at blade 1, node 15, m/s
         31   -1.139786720276E+000                                                     T               2         vind (axial) at blade 1, node 16, m/s
         32    2.419741153717E-001                                                     T               2         vind (tangential) at blade 1, node 16, m/s
         33   -1.246647953987E+000                                                     T               2         vind (axial) at blade 1, node 17, m/s
         34    2.497876137495E-001                                                     T               2         vind (tangential) at blade 1, node 17, m/s
         35   -1.315515279770E+000                                                     T               2         vind (axial) at blade 1, node 18, m/s
         36    2.503957152367E-001                                                     T               2         vind (tangential) at blade 1, node 18, m/s
         37   -1.584725379944E+001                                                     T               2         vind (axial) at blade 1, node 19, m/s
         38    0.000000000000E+000                                                     T               2         vind (tangential) at blade 1, node 19, m/s
         39   -1.543774032593E+001                                                     T               2         vind (axial) at blade 2, node 1, m/s
         40    0.000000000000E+000                                                     T               2         vind (tangential) at blade 2, node 1, m/s
         41    0.000000000000E+000                                                     T               2         vind (axial) at blade 2, node 2, m/s
         42    0.000000000000E+000                                                     T               2         vind (tangential) at blade 2, node 2, m/s
         43    0.000000000000E+000                                                     T               2         vind (axial) at blade 2, node 3, m/s
         44    0.000000000000E+000                                                     T               2         vind (tangential) at blade 2, node 3, m/s
         45    0.000000000000E+000                                                     T               2         vind (axial) at blade 2, node 4, m/s
         46    0.000000000000E+000                                                     T               2         vind (tangential) at blade 2, node 4, m/s
         47   -2.091624736786E+000                                                     T               2         vind (axial) at blade 2, node 5, m/s
         48    1.582098841667E+000                                                     T               2         vind (tangential) at blade 2, node 5, m/s
         49   -2.079067468643E+000                                                     T               2         vind (axial) at blade 2, node 6, m/s
         50    1.234310746193E+000                                                     T               2         vind (tangential) at blade 2, node 6, m/s
         51   -1.647467732430E+000                                                     T               2         vind (axial) at blade 2, node 7, m/s
         52    8.274038434029E-001                                                     T               2         vind (tangential) at blade 2, node 7, m/s
         53   -1.365293741226E+000                                                     T               2         vind (axial) at blade 2, node 8, m/s
         54    5.875630974770E-001                                                     T               2         vind (tangential) at blade 2, node 8, m/s
         55   -1.300465226173E+000                                                     T               2         vind (axial) at blade 2, node 9, m/s
         56    4.811364710331E-001                                                     T               2         vind (tangential) at blade 2, node 9, m/s
         57   -1.115166902542E+000                                                     T               2         vind (axial) at blade 2, node 10, m/s
         58    3.645178079605E-001                                                     T               2         vind (tangential) at blade 2, node 10, m/s
         59   -1.107021689415E+000                                                     T               2         vind (axial) at blade 2, node 11, m/s
         60    3.193202018738E-001                                                     T               2         vind (tangential) at blade 2, node 11, m/s
         61   -1.034920811653E+000                                                     T               2         vind (axial) at blade 2, node 12, m/s
         62    2.676924169064E-001                                                     T               2         vind (tangential) at blade 2, node 12, m/s
         63   -8.506909608841E-001                                                     T               2         vind (axial) at blade 2, node 13, m/s
         64    2.009027600288E-001                                                     T               2         vind (tangential) at blade 2, node 13, m/s
         65   -7.844322323799E-001                                                     T               2         vind (axial) at blade 2, node 14, m/s
         66    1.689023822546E-001                                                     T               2         vind (tangential) at blade 2, node 14, m/s
         67   -7.548356652260E-001                                                     T               2         vind (axial) at blade 2, node 15, m/s
         68    1.488003730774E-001                                                     T               2         vind (tangential) at blade 2, node 15, m/s
         69   -7.793174386024E-001                                                     T               2         vind (axial) at blade 2, node 16, m/s
         70    1.428582817316E-001                                                     T               2         vind (tangential) at blade 2, node 16, m/s
         71   -8.377754092216E-001                                                     T               2         vind (axial) at blade 2, node 17, m/s
         72    1.448791027069E-001                                                     T               2         vind (tangential) at blade 2, node 17, m/s
         73   -8.419628739357E-001                                                     T               2         vind (axial) at blade 2, node 18, m/s
         74    1.389500945807E-001                                                     T               2         vind (tangential) at blade 2, node 18, m/s
         75   -1.310534858704E+001                                                     T               2         vind (axial) at blade 2, node 19, m/s
         76    0.000000000000E+000                                                     T               2         vind (tangential) at blade 2, node 19, m/s
         77   -1.572676658630E+001                                                     T               2         vind (axial) at blade 3, node 1, m/s
         78    0.000000000000E+000                                                     T               2         vind (tangential) at blade 3, node 1, m/s
         79    0.000000000000E+000                                                     T               2         vind (axial) at blade 3, node 2, m/s
         80    0.000000000000E+000                                                     T               2         vind (tangential) at blade 3, node 2, m/s
         81    0.000000000000E+000                                                     T               2         vind (axial) at blade 3, node 3, m/s
         82    0.000000000000E+000                                                     T               2         vind (tangential) at blade 3, node 3, m/s
         83    0.000000000000E+000                                                     T               2         vind (axial) at blade 3, node 4, m/s
         84    0.000000000000E+000                                                     T               2         vind (tangential) at blade 3, node 4, m/s
         85   -1.832854390144E+000                                                     T               2         vind (axial) at blade 3, node 5, m/s
         86    1.678411722183E+000                                                     T               2         vind (tangential) at blade 3, node 5, m/s
         87   -2.101206302643E+000                                                     T               2         vind (axial) at blade 3, node 6, m/s
         88    1.412561535835E+000                                                     T               2         vind (tangential) at blade 3, node 6, m/s
         89   -1.803788542747E+000                                                     T               2         vind (axial) at blade 3, node 7, m/s
         90    9.936201572418E-001                                                     T               2         vind (tangential) at blade 3, node 7, m/s
         91   -1.535897612572E+000                                                     T               2         vind (axial) at blade 3, node 8, m/s
         92    7.150279283524E-001                                                     T               2         vind (tangential) at blade 3, node 8, m/s
         93   -1.450984716415E+000                                                     T               2         vind (axial) at blade 3, node 9, m/s
         94    5.769179463387E-001                                                     T               2         vind (tangential) at blade 3, node 9, m/s
         95   -1.270358562469E+000                                                     T               2         vind (axial) at blade 3, node 10, m/s
         96    4.433144330978E-001                                                     T               2         vind (tangential) at blade 3, node 10, m/s
         97   -1.243292093277E+000                                                     T               2         vind (axial) at blade 3, node 11, m/s
         98    3.819998800755E-001                                                     T               2         vind (tangential) at blade 3, node 11, m/s
         99   -1.170782923698E+000                                                     T               2         vind (axial) at blade 3, node 12, m/s
        100    3.216111660004E-001                                                     T               2         vind (tangential) at blade 3, node 12, m/s
        101   -9.806032180786E-001                                                     T               2         vind (axial) at blade 3, node 13, m/s
        102    2.453028410673E-001                                                     T               2         vind (tangential) at blade 3, node 13, m/s
        103   -9.212660193443E-001                                                     T               2         vind (axial) at blade 3, node 14, m/s
        104    2.093385607004E-001                                                     T               2         vind (tangential) at blade 3, node 14, m/s
        105   -9.046742916107E-001                                                     T               2         vind (axial) at blade 3, node 15, m/s
        106    1.874102056026E-001                                                     T               2         vind (tangential) at blade 3, node 15, m/s
        107   -9.479237198830E-001                                                     T               2         vind (axial) at blade 3, node 16, m/s
        108    1.819624900818E-001                                                     T               2         vind (tangential) at blade 3, node 16, m/s
        109   -1.033405542374E+000                                                     T               2         vind (axial) at blade 3, node 17, m/s
        110    1.865708529949E-001                                                     T               2         vind (tangential) at blade 3, node 17, m/s
        111   -1.077756285667E+000                                                     T               2         vind (axial) at blade 3, node 18, m/s
        112    1.844058483839E-001                                                     T               2         vind (tangential) at blade 3, node 18, m/s
        113   -1.423778915405E+001                                                     T               2         vind (axial) at blade 3, node 19, m/s
        114    0.000000000000E+000                                                     T               2         vind (tangential) at blade 3, node 19, m/s
        115   -6.384002208710E+000                                                     T               2         First time derivative of vind (axial) at blade 1, node 1, m/s/s
        116    0.000000000000E+000                                                     T               2         First time derivative of vind (tangential) at blade 1, node 1, m/s/s
        117    0.000000000000E+000                                                     T               2         First time derivative of vind (axial) at blade 1, node 2, m/s/s
        118    0.000000000000E+000                                                     T               2         First time derivative of vind (tangential) at blade 1, node 2, m/s/s
        119    0.000000000000E+000                                                     T               2         First time derivative of vind (axial) at blade 1, node 3, m/s/s
        120    0.000000000000E+000                                                     T               2         First time derivative of vind (tangential) at blade 1, node 3, m/s/s
        121    0.000000000000E+000                                                     T               2         First time derivative of vind (axial) at blade 1, node 4, m/s/s
        122    0.000000000000E+000                                                     T               2         First time derivative of vind (tangential) at blade 1, node 4, m/s/s
        123   -8.029524087906E-001                                                     T               2         First time derivative of vind (axial) at blade 1, node 5, m/s/s
        124    6.813717484474E-001                                                     T               2         First time derivative of vind (tangential) at blade 1, node 5, m/s/s
        125   -8.808325529099E-001                                                     T               2         First time derivative of vind (axial) at blade 1, node 6, m/s/s
        126    5.751282572746E-001                                                     T               2         First time derivative of vind (tangential) at blade 1, node 6, m/s/s
        127   -7.542141079903E-001                                                     T               2         First time derivative of vind (axial) at blade 1, node 7, m/s/s
        128    4.153894484043E-001                                                     T               2         First time derivative of vind (tangential) at blade 1, node 7, m/s/s
        129   -6.603554487228E-001                                                     T               2         First time derivative of vind (axial) at blade 1, node 8, m/s/s
        130    3.134661912918E-001                                                     T               2         First time derivative of vind (tangential) at blade 1, node 8, m/s/s
        131   -6.366159319878E-001                                                     T               2         First time derivative of vind (axial) at blade 1, node 9, m/s/s
        132    2.626807391644E-001                                                     T               2         First time derivative of vind (tangential) at blade 1, node 9, m/s/s
        133   -5.760659575462E-001                                                     T               2         First time derivative of vind (axial) at blade 1, node 10, m/s/s
        134    2.119361460209E-001                                                     T               2         First time derivative of vind (tangential) at blade 1, node 10, m/s/s
        135   -5.720275044441E-001                                                     T               2         First time derivative of vind (axial) at blade 1, node 11, m/s/s
        136    1.882092207670E-001                                                     T               2         First time derivative of vind (tangential) at blade 1, node 11, m/s/s
        137   -5.513237714767E-001                                                     T               2         First time derivative of vind (axial) at blade 1, node 12, m/s/s
        138    1.646343171597E-001                                                     T               2         First time derivative of vind (tangential) at blade 1, node 12, m/s/s
        139   -4.782445132732E-001                                                     T               2         First time derivative of vind (axial) at blade 1, node 13, m/s/s
        140    1.320718079805E-001                                                     T               2         First time derivative of vind (tangential) at blade 1, node 13, m/s/s
        141   -4.640544354916E-001                                                     T               2         First time derivative of vind (axial) at blade 1, node 14, m/s/s
        142    1.182411238551E-001                                                     T               2         First time derivative of vind (tangential) at blade 1, node 14, m/s/s
        143   -4.705448746681E-001                                                     T               2         First time derivative of vind (axial) at blade 1, node 15, m/s/s
        144    1.110258251429E-001                                                     T               2         First time derivative of vind (tangential) at blade 1, node 15, m/s/s
        145   -5.057670474052E-001                                                     T               2         First time derivative of vind (axial) at blade 1, node 16, m/s/s
        146    1.119268387556E-001                                                     T               2         First time derivative of vind (tangential) at blade 1, node 16, m/s/s
        147   -5.635113716125E-001                                                     T               2         First time derivative of vind (axial) at blade 1, node 17, m/s/s
        148    1.182386055589E-001                                                     T               2         First time derivative of vind (tangential) at blade 1, node 17, m/s/s
        149   -6.105647683144E-001                                                     T               2         First time derivative of vind (axial) at blade 1, node 18, m/s/s
        150    1.220840886235E-001                                                     T               2         First time derivative of vind (tangential) at blade 1, node 18, m/s/s
        151   -6.761765003204E+000                                                     T               2         First time derivative of vind (axial) at blade 1, node 19, m/s/s
        152    0.000000000000E+000                                                     T               2         First time derivative of vind (tangential) at blade 1, node 19, m/s/s
        153   -6.216054439545E+000                                                     T               2         First time derivative of vind (axial) at blade 2, node 1, m/s/s
        154    0.000000000000E+000                                                     T               2         First time derivative of vind (tangential) at blade 2, node 1, m/s/s
        155    0.000000000000E+000                                                     T               2         First time derivative of vind (axial) at blade 2, node 2, m/s/s
        156    0.000000000000E+000                                                     T               2         First time derivative of vind (tangential) at blade 2, node 2, m/s/s
        157    0.000000000000E+000                                                     T               2         First time derivative of vind (axial) at blade 2, node 3, m/s/s
        158    0.000000000000E+000                                                     T               2         First time derivative of vind (tangential) at blade 2, node 3, m/s/s
        159    0.000000000000E+000                                                     T               2         First time derivative of vind (axial) at blade 2, node 4, m/s/s
        160    0.000000000000E+000                                                     T               2         First time derivative of vind (tangential) at blade 2, node 4, m/s/s
        161   -8.399502038956E-001                                                     T               2         First time derivative of vind (axial) at blade 2, node 5, m/s/s
        162    6.387977004051E-001                                                     T               2         First time derivative of vind (tangential) at blade 2, node 5, m/s/s
        163   -8.393358588219E-001                                                     T               2         First time derivative of vind (axial) at blade 2, node 6, m/s/s
        164    5.007460713387E-001                                                     T               2         First time derivative of vind (tangential) at blade 2, node 6, m/s/s
        165   -6.680110096931E-001                                                     T               2         First time derivative of vind (axial) at blade 2, node 7, m/s/s
        166    3.372226357460E-001                                                     T               2         First time derivative of vind (tangential) at blade 2, node 7, m/s/s
        167   -5.558468699455E-001                                                     T               2         First time derivative of vind (axial) at blade 2, node 8, m/s/s
        168    2.406103909016E-001                                                     T               2         First time derivative of vind (tangential) at blade 2, node 8, m/s/s
        169   -5.306932926178E-001                                                     T               2         First time derivative of vind (axial) at blade 2, node 9, m/s/s
        170    1.977231502533E-001                                                     T               2         First time derivative of vind (tangential) at blade 2, node 9, m/s/s
        171   -4.580724537373E-001                                                     T               2         First time derivative of vind (axial) at blade 2, node 10, m/s/s
        172    1.509762257338E-001                                                     T               2         First time derivative of vind (tangential) at blade 2, node 10, m/s/s
        173   -4.561417996883E-001                                                     T               2         First time derivative of vind (axial) at blade 2, node 11, m/s/s
        174    1.329469978809E-001                                                     T               2         First time derivative of vind (tangential) at blade 2, node 11, m/s/s
        175   -4.298735260963E-001                                                     T               2         First time derivative of vind (axial) at blade 2, node 12, m/s/s
        176    1.126155108213E-001                                                     T               2         First time derivative of vind (tangential) at blade 2, node 12, m/s/s
        177   -3.584273457527E-001                                                     T               2         First time derivative of vind (axial) at blade 2, node 13, m/s/s