
Linearized model: Predictions were generated on 03-Jul-2025 at 08:26:15 using OpenFAST, compiled on Jun 19 2025 at 03:54:01 as a 64-bit application using single precision at commit v4.1.0
 linked with  NWTC Subroutine Library; ElastoDyn; InflowWind; AeroDyn; ServoDyn

Description from the FAST input file: NREL                   MW          - Baseline Wind Turbine (Onshore), Linearization with AeroDyn + ED

Simulation information:
   Simulation time:                     1.0000 s
   Rotor Speed:                         1.3423 rad/s
   Azimuth:                             1.3001 rad
   Wind Speed:                         16.0000 m/s
   Number of continuous states:       260
   Number of discrete states:           0
   Number of constraint states:         0
   Number of inputs:                   69
   Number of outputs:                  39
   Jacobians included in this file?    No

Order of continuous states:
   Row/Column Operating Point                                                   Rotating Frame? Derivative Order Description
   ---------- ---------------                                                   --------------- ---------------- -----------
          1    2.885300815105E-001                                                     F               2         ED 1st tower fore-aft bending mode DOF (internal DOF index = DOF_TFA1), m
          2    9.850836358964E-003                                                     F               2         ED 1st tower side-to-side bending mode DOF (internal DOF index = DOF_TSS1), m
          3    9.248716378352E-005                                                     F               2         ED 2nd tower fore-aft bending mode DOF (internal DOF index = DOF_TFA2), m
          4    3.069412196055E-005                                                     F               2         ED 2nd tower side-to-side bending mode DOF (internal DOF index = DOF_TSS2), m
          5    1.605928118806E-004                                                     F               2         ED Nacelle yaw DOF (internal DOF index = DOF_Yaw), rad
          6    6.012369155884E+000                                                     F               2         ED Variable speed generator DOF (internal DOF index = DOF_GeAz), rad
          7    7.798766455380E-005                                                     F               2         ED Drivetrain rotational-flexibility DOF (internal DOF index = DOF_DrTr), rad
          8    3.265548706055E+000                                                     T               2         ED 1st flapwise bending-mode DOF of blade 1 (internal DOF index = DOF_BF(1,1)), m
          9    1.628902673721E+000                                                     T               2         ED 1st flapwise bending-mode DOF of blade 2 (internal DOF index = DOF_BF(2,1)), m
         10    2.712307214737E+000                                                     T               2         ED 1st flapwise bending-mode DOF of blade 3 (internal DOF index = DOF_BF(3,1)), m
         11   -7.177153602242E-003                                                     T               2         ED 1st edgewise bending-mode DOF of blade 1 (internal DOF index = DOF_BE(1,1)), m
         12    7.206346392632E-001                                                     T               2         ED 1st edgewise bending-mode DOF of blade 2 (internal DOF index = DOF_BE(2,1)), m
         13    2.777801752090E-001                                                     T               2         ED 1st edgewise bending-mode DOF of blade 3 (internal DOF index = DOF_BE(3,1)), m
         14   -1.441677063704E-001                                                     T               2         ED 2nd flapwise bending-mode DOF of blade 1 (internal DOF index = DOF_BF(1,2)), m
         15   -1.400540582836E-002                                                     T               2         ED 2nd flapwise bending-mode DOF of blade 2 (internal DOF index = DOF_BF(2,2)), m
         16   -6.224060058594E-002                                                     T               2         ED 2nd flapwise bending-mode DOF of blade 3 (internal DOF index = DOF_BF(3,2)), m
         17    4.964795708656E-001                                                     F               2         ED First time derivative of 1st tower fore-aft bending mode DOF (internal DOF index = DOF_TFA1), m/s
         18    4.621586203575E-002                                                     F               2         ED First time derivative of 1st tower side-to-side bending mode DOF (internal DOF index = DOF_TSS1), m/s
         19    6.535051506944E-004                                                     F               2         ED First time derivative of 2nd tower fore-aft bending mode DOF (internal DOF index = DOF_TFA2), m/s
         20   -2.622657484608E-005                                                     F               2         ED First time derivative of 2nd tower side-to-side bending mode DOF (internal DOF index = DOF_TSS2), m/s
         21   -2.812539460137E-004                                                     F               2         ED First time derivative of Nacelle yaw DOF (internal DOF index = DOF_Yaw), rad/s
         22    1.339021444321E+000                                                     F               2         ED First time derivative of Variable speed generator DOF (internal DOF index = DOF_GeAz), rad/s
         23    3.312370739877E-003                                                     F               2         ED First time derivative of Drivetrain rotational-flexibility DOF (internal DOF index = DOF_DrTr), rad/s
         24   -8.287938237190E-001                                                     T               2         ED First time derivative of 1st flapwise bending-mode DOF of blade 1 (internal DOF index = DOF_BF(1,1)), m/s
         25   -1.102773427963E+000                                                     T               2         ED First time derivative of 1st flapwise bending-mode DOF of blade 2 (internal DOF index = DOF_BF(2,1)), m/s
         26    2.930231988430E-001                                                     T               2         ED First time derivative of 1st flapwise bending-mode DOF of blade 3 (internal DOF index = DOF_BF(3,1)), m/s
         27    1.856116950512E-001                                                     T               2         ED First time derivative of 1st edgewise bending-mode DOF of blade 1 (internal DOF index = DOF_BE(1,1)), m/s
         28   -1.346896052361E+000                                                     T               2         ED First time derivative of 1st edgewise bending-mode DOF of blade 2 (internal DOF index = DOF_BE(2,1)), m/s
         29    2.585613727570E-001                                                     T               2         ED First time derivative of 1st edgewise bending-mode DOF of blade 3 (internal DOF index = DOF_BE(3,1)), m/s
         30    7.151563465595E-002                                                     T               2         ED First time derivative of 2nd flapwise bending-mode DOF of blade 1 (internal DOF index = DOF_BF(1,2)), m/s
         31   -4.180090427399E-001                                                     T               2         ED First time derivative of 2nd flapwise bending-mode DOF of blade 2 (internal DOF index = DOF_BF(2,2)), m/s
         32    1.975726336241E-002                                                     T               2         ED First time derivative of 2nd flapwise bending-mode DOF of blade 3 (internal DOF index = DOF_BF(3,2)), m/s
         33   -1.592564105988E+001                                                     T               2         AD vind (axial) at blade 1, node 1, m/s
         34    0.000000000000E+000                                                     T               2         AD vind (tangential) at blade 1, node 1, m/s
         35    0.000000000000E+000                                                     T               2         AD vind (axial) at blade 1, node 2, m/s
         36    0.000000000000E+000                                                     T               2         AD vind (tangential) at blade 1, node 2, m/s
         37    0.000000000000E+000                                                     T               2         AD vind (axial) at blade 1, node 3, m/s
         38    0.000000000000E+000                                                     T               2         AD vind (tangential) at blade 1, node 3, m/s
         39    0.000000000000E+000                                                     T               2         AD vind (axial) at blade 1, node 4, m/s
         40    0.000000000000E+000                                                     T               2         AD vind (tangential) at blade 1, node 4, m/s
         41   -2.019044876099E+000                                                     T               2         AD vind (axial) at blade 1, node 5, m/s
         42    1.694082736969E+000                                                     T               2         AD vind (tangential) at blade 1, node 5, m/s
         43   -2.194732189178E+000                                                     T               2         AD vind (axial) at blade 1, node 6, m/s
         44    1.419758796692E+000                                                     T               2         AD vind (tangential) at blade 1, node 6, m/s
         45   -1.865503311157E+000                                                     T               2         AD vind (axial) at blade 1, node 7, m/s
         46    1.018417239189E+000                                                     T               2         AD vind (tangential) at blade 1, node 7, m/s
         47   -1.624692916870E+000                                                     T               2         AD vind (axial) at blade 1, node 8, m/s
         48    7.639469504356E-001                                                     T               2         AD vind (tangential) at blade 1, node 8, m/s
         49   -1.563840746880E+000                                                     T               2         AD vind (axial) at blade 1, node 9, m/s
         50    6.380380988121E-001                                                     T               2         AD vind (tangential) at blade 1, node 9, m/s
         51   -1.405472874641E+000                                                     T               2         AD vind (axial) at blade 1, node 10, m/s
         52    5.103895068169E-001                                                     T               2         AD vind (tangential) at blade 1, node 10, m/s
         53   -1.392167568207E+000                                                     T               2         AD vind (axial) at blade 1, node 11, m/s
         54    4.507145285606E-001                                                     T               2         AD vind (tangential) at blade 1, node 11, m/s
         55   -1.331841111183E+000                                                     T               2         AD vind (axial) at blade 1, node 12, m/s
         56    3.899538218975E-001                                                     T               2         AD vind (tangential) at blade 1, node 12, m/s
         57   -1.140209078789E+000                                                     T               2         AD vind (axial) at blade 1, node 13, m/s
         58    3.074066638947E-001                                                     T               2         AD vind (tangential) at blade 1, node 13, m/s
         59   -1.088740825653E+000                                                     T               2         AD vind (axial) at blade 1, node 14, m/s
         60    2.693873643875E-001                                                     T               2         AD vind (tangential) at blade 1, node 14, m/s
         61   -1.081796884537E+000                                                     T               2         AD vind (axial) at blade 1, node 15, m/s
         62    2.463019043207E-001                                                     T               2         AD vind (tangential) at blade 1, node 15, m/s
         63   -1.139786720276E+000                                                     T               2         AD vind (axial) at blade 1, node 16, m/s
         64    2.419741153717E-001                                                     T               2         AD vind (tangential) at blade 1, node 16, m/s
         65   -1.246647953987E+000                                                     T               2         AD vind (axial) at blade 1, node 17, m/s
         66    2.497876137495E-001                                                     T               2         AD vind (tangential) at blade 1, node 17, m/s
         67   -1.315515279770E+000                                                     T               2         AD vind (axial) at blade 1, node 18, m/s
         68    2.503957152367E-001                                                     T               2         AD vind (tangential) at blade 1, node 18, m/s
         69   -1.584725379944E+001                                                     T               2         AD vind (axial) at blade 1, node 19, m/s
         70    0.000000000000E+000                                                     T               2         AD vind (tangential) at blade 1, node 19, m/s
         71   -1.543774032593E+001                                                     T               2         AD vind (axial) at blade 2, node 1, m/s
         72    0.000000000000E+000                                                     T               2         AD vind (tangential) at blade 2, node 1, m/s
         73    0.000000000000E+000                                                     T               2         AD vind (axial) at blade 2, node 2, m/s
         74    0.000000000000E+000                                                     T               2         AD vind (tangential) at blade 2, node 2, m/s
         75    0.000000000000E+000                                                     T               2         AD vind (axial) at blade 2, node 3, m/s
         76    0.000000000000E+000                                                     T               2         AD vind (tangential) at blade 2, node 3, m/s
         77    0.000000000000E+000                                                     T               2         AD vind (axial) at blade 2, node 4, m/s
         78    0.000000000000E+000                                                     T               2         AD vind (tangential) at blade 2, node 4, m/s
         79   -2.091624736786E+000                                                     T               2         AD vind (axial) at blade 2, node 5, m/s
         80    1.582098841667E+000                                                     T               2         AD vind (tangential) at blade 2, node 5, m/s
         81   -2.079067468643E+000                                                     T               2         AD vind (axial) at blade 2, node 6, m/s
         82    1.234310746193E+000                                                     T               2         AD vind (tangential) at blade 2, node 6, m/s
         83   -1.647467732430E+000                                                     T               2         AD vind (axial) at blade 2, node 7, m/s
         84    8.274038434029E-001                                                     T               2         AD vind (tangential) at blade 2, node 7, m/s
         85   -1.365293741226E+000                                                     T               2         AD vind (axial) at blade 2, node 8, m/s
         86    5.875630974770E-001                                                     T               2         AD vind (tangential) at blade 2, node 8, m/s
         87   -1.300465226173E+000                                                     T               2         AD vind (axial) at blade 2, node 9, m/s
         88    4.811364710331E-001                                                     T               2         AD vind (tangential) at blade 2, node 9, m/s
         89   -1.115166902542E+000                                                     T               2         AD vind (axial) at blade 2, node 10, m/s
         90    3.645178079605E-001                                                     T               2         AD vind (tangential) at blade 2, node 10, m/s
         91   -1.107021689415E+000                                                     T               2         AD vind (axial) at blade 2, node 11, m/s
         92    3.193202018738E-001                                                     T               2         AD vind (tangential) at blade 2, node 11, m/s
         93   -1.034920811653E+000                                                     T               2         AD vind (axial) at blade 2, node 12, m/s
         94    2.676924169064E-001                                                     T               2         AD vind (tangential) at blade 2, node 12, m/s
         95   -8.506909608841E-001                                                     T               2         AD vind (axial) at blade 2, node 13, m/s
         96    2.009027600288E-001                                                     T               2         AD vind (tangential) at blade 2, node 13, m/s
         97   -7.844322323799E-001                                                     T               2         AD vind (axial) at blade 2, node 14, m/s
         98    1.689023822546E-001                                                     T               2         AD vind (tangential) at blade 2, node 14, m/s
         99   -7.548356652260E-001                                                     T               2         AD vind (axial) at blade 2, node 15, m/s
        100    1.488003730774E-001                                                     T               2         AD vind (tangential) at blade 2, node 15, m/s
        101   -7.793174386024E-001                                                     T               2         AD vind (axial) at blade 2, node 16, m/s
        102    1.428582817316E-001                                                     T               2         AD vind (tangential) at blade 2, node 16, m/s
        103   -8.377754092216E-001                                                     T               2         AD vind (axial) at blade 2, node 17, m/s
        104    1.448791027069E-001                                                     T               2         AD vind (tangential) at blade 2, node 17, m/s
        105   -8.419628739357E-001                                                     T               2         AD vind (axial) at blade 2, node 18, m/s
        106    1.389500945807E-001                                                     T               2         AD vind (tangential) at blade 2, node 18, m/s
        107   -1.310534858704E+001                                                     T               2         AD vind (axial) at blade 2, node 19, m/s
        108    0.000000000000E+000                                                     T               2         AD vind (tangential) at blade 2, node 19, m/s
        109   -1.572676658630E+001                                                     T               2         AD vind (axial) at blade 3, node 1, m/s
        110    0.000000000000E+000                                                     T               2         AD vind (tangential) at blade 3, node 1, m/s
        111    0.000000000000E+000                                                     T               2         AD vind (axial) at blade 3, node 2, m/s
        112    0.000000000000E+000                                                     T               2         AD vind (tangential) at blade 3, node 2, m/s
        113    0.000000000000E+000                                                     T               2         AD vind (axial) at blade 3, node 3, m/s
        114    0.000000000000E+000                                                     T               2         AD vind (tangential) at blade 3, node 3, m/s
        115    0.000000000000E+000                                                     T               2         AD vind (axial) at blade 3, node 4, m/s
        116    0.000000000000E+000                                                     T               2         AD vind (tangential) at blade 3, node 4, m/s
        117   -1.832854390144E+000                                                     T               2         AD vind (axial) at blade 3, node 5, m/s
        118    1.678411722183E+000                                                     T               2         AD vind (tangential) at blade 3, node 5, m/s
        119   -2.101206302643E+000                                                     T               2         AD vind (axial) at blade 3, node 6, m/s
        120    1.412561535835E+000                                                     T               2         AD vind (tangential) at blade 3, node 6, m/s
        121   -1.803788542747E+000                                                     T               2         AD vind (axial) at blade 3, node 7, m/s
        122    9.936201572418E-001                                                     T               2         AD vind (tangential) at blade 3, node 7, m/s
        123   -1.535897612572E+000                                                     T               2         AD vind (axial) at blade 3, node 8, m/s
        124    7.150279283524E-001                                                     T               2         AD vind (tangential) at blade 3, node 8, m/s
        125   -1.450984716415E+000                                                     T               2         AD vind (axial) at blade 3, node 9, m/s
        126    5.769179463387E-001                                                     T               2         AD vind (tangential) at blade 3, node 9, m/s
        127   -1.270358562469E+000                                                     T               2         AD vind (axial) at blade 3, node 10, m/s
        128    4.433144330978E-001                                                     T               2         AD vind (tangential) at blade 3, node 10, m/s
        129   -1.243292093277E+000                                                     T               2         AD vind (axial) at blade 3, node 11, m/s
        130    3.819998800755E-001                                                     T               2         AD vind (tangential) at blade 3, node 11, m/s
        131   -1.170782923698E+000                                                     T               2         AD vind (axial) at blade 3, node 12, m/s
        132    3.216111660004E-001                                                     T               2         AD vind (tangential) at blade 3, node 12, m/s
        133   -9.806032180786E-001                                                     T               2         AD vind (axial) at blade 3, node 13, m/s
        134    2.453028410673E-001                                                     T               2         AD vind (tangential) at blade 3, node 13, m/s
        135   -9.212660193443E-001                                                     T               2         AD vind (axial) at blade 3, node 14, m/s
        136    2.093385607004E-001                                                     T               2         AD vind (tangential) at blade 3, node 14, m/s
        137   -9.046742916107E-001                                                     T               2         AD vind (axial) at blade 3, node 15, m/s
        138    1.874102056026E-001                                                     T               2         AD vind (tangential) at blade 3, node 15, m/s
        139   -9.479237198830E-001                                                     T               2         AD vind (axial) at blade 3, node 16, m/s
        140    1.819624900818E-001                                                     T               2         AD vind (tangential) at blade 3, node 16, m/s
        141   -1.033405542374E+000                                                     T               2         AD vind (axial) at blade 3, node 17, m/s
        142    1.865708529949E-001                                                     T               2         AD vind (tangential) at blade 3, node 17, m/s
        143   -1.077756285667E+000                                                     T               2         AD vind (axial) at blade 3, node 18, m/s
        144    1.844058483839E-001                                                     T               2         AD vind (tangential) at blade 3, node 18, m/s
        145   -1.423778915405E+001                                                     T               2         AD vind (axial) at blade 3, node 19, m/s
        146    0.000000000000E+000                                                     T               2         AD vind (tangential) at blade 3, node 19, m/s
        147   -6.384002208710E+000                                                     T               2         AD First time derivative of vind (axial) at blade 1, node 1, m/s/s
        148    0.000000000000E+000                                                     T               2         AD First time derivative of vind (tangential) at blade 1, node 1, m/s/s
        149    0.000000000000E+000                                                     T               2         AD First time derivative of vind (axial) at blade 1, node 2, m/s/s
        150    0.000000000000E+000                                                     T               2         AD First time derivative of vind (tangential) at blade 1, node 2, m/s/s
        151    0.000000000000E+000                                                     T               2         AD First time derivative of vind (axial) at blade 1, node 3, m/s/s
        152    0.000000000000E+000                                                     T               2         AD First time derivative of vind (tangential) at blade 1, node 3, m/s/s
        153    0.000000000000E+000                                                     T               2         AD First time derivative of vind (axial) at blade 1, node 4, m/s/s
        154    0.000000000000E+000                                                     T               2         AD First time derivative of vind (tangential) at blade 1, node 4, m/s/s
        155   -8.029524087906E-001                                                     T               2         AD First time derivative of vind (axial) at blade 1, node 5, m/s/s
        156    6.813717484474E-001                                                     T               2         AD First time derivative of vind (tangential) at blade 1, node 5, m/s/s
        157   -8.808325529099E-001                                                     T               2         AD First time derivative of vind (axial) at blade 1, node 6, m/s/s
        158    5.751282572746E-001                                                     T               2         AD First time derivative of vind (tangential) at blade 1, node 6, m/s/s
        159   -7.542141079903E-001                                                     T               2         AD First time derivative of vind (axial) at blade 1, node 7, m/s/s
        160    4.153894484043E-001                                                     T               2         AD First time derivative of vind (tangential) at blade 1, node 7, m/s/s
        161   -6.603554487228E-001                                                     T               2         AD First time derivative of vind (axial) at blade 1, node 8, m/s/s
        162    3.134661912918E-001                                                     T               2         AD First time derivative of vind (tangential) at blade 1, node 8, m/s/s
        163   -6.366159319878E-001                                                     T               2         AD First time derivative of vind (axial) at blade 1, node 9, m/s/s
        164    2.626807391644E-001                                                     T               2         AD First time derivative of vind (tangential) at blade 1, node 9, m/s/s
        165   -5.760659575462E-001                                                     T               2         AD First time derivative of vind (axial) at blade 1, node 10, m/s/s
        166    2.119361460209E-001                                                     T               2         AD First time derivative of vind (tangential) at blade 1, node 10, m/s/s
        167   -5.720275044441E-001                                                     T               2         AD First time derivative of vind (axial) at blade 1, node 11, m/s/s
        168    1.882092207670E-001                                                     T               2         AD First time derivative of vind (tangential) at blade 1, node 11, m/s/s
        169   -5.513237714767E-001                                                     T               2         AD First time derivative of vind (axial) at blade 1, node 12, m/s/s
        170    1.646343171597E-001                                                     T               2         AD First time derivative of vind (tangential) at blade 1, node 12, m/s/s