
Predictions were generated on 09-Jul-2025 at 03:58:01 using OpenFAST, compiled on Jun 19 2025 at 03:54:01 as a 64-bit application using single precision at commit v4.1.0
 linked with  NWTC Subroutine Library; ElastoDyn; InflowWind; AeroDyn; ServoDyn; SeaState; HydroDyn; MAP++ (<1.20.10>, <Jun-19-2025>)

Description from the FAST input file: FAST Certification Test #23: NREL 5.0 MW Baseline Wind Turbine with MIT-NREL TLP Configuration, for use in offshore analysis

Time	Wind1VelX	Wind1VelY	Wind1VelZ	BldPitch1	BldPitch2	BldPitch3	Azimuth	RotSpeed	GenSpeed	NacYaw	OoPDefl1	IPDefl1	TwstDefl1	OoPDefl2	IPDefl2	TwstDefl2	OoPDefl3	IPDefl3	TwstDefl3	TwrClrnc1	TwrClrnc2	TwrClrnc3	NcIMUTAxs	NcIMUTAys	NcIMUTAzs	TTDspFA	TTDspSS	TTDspTwst	PtfmSurge	PtfmSway	PtfmHeave	PtfmRoll	PtfmPitch	PtfmYaw	PtfmTAxt	PtfmTAyt	PtfmTAzt	RootFxc1	RootFyc1	RootFzc1	RootMxc1	RootMyc1	RootMzc1	RootFxc2	RootFyc2	RootFzc2	RootMxc2	RootMyc2	RootMzc2	RootFxc3	RootFyc3	RootFzc3	RootMxc3	RootMyc3	RootMzc3	Spn1MLxb1	Spn1MLyb1	Spn1MLzb1	Spn1MLxb2	Spn1MLyb2	Spn1MLzb2	Spn1MLxb3	Spn1MLyb3	Spn1MLzb3	RotThrust	LSSGagFya	LSSGagFza	RotTorq	LSSGagMya	LSSGagMza	YawBrFxp	YawBrFyp	YawBrFzp	YawBrMxp	YawBrMyp	YawBrMzp	TwrBsFxt	TwrBsFyt	TwrBsFzt	TwrBsMxt	TwrBsMyt	TwrBsMzt	TwHt1MLxt	TwHt1MLyt	TwHt1MLzt	GenPwr	GenTq	Wave1Elev	HydroFxi	HydroFyi	HydroFzi	HydroMxi	HydroMyi	HydroMzi	B1Surge	B1Sway	B1Heave	B1Roll	B1Pitch	B1Yaw	B1TVxi	B1TVyi	B1TVzi	B1RVxi	B1RVyi	B1RVzi	B1TAxi	B1TAyi	B1TAzi	B1RAxi	B1RAyi	B1RAzi	B1WvsFxi	B1WvsFyi	B1WvsFzi	B1WvsMxi	B1WvsMyi	B1WvsMzi	B1HDSFxi	B1HDSFyi	B1HDSFzi	B1HDSMxi	B1HDSMyi	B1HDSMzi	B1RdtFxi	B1RdtFyi	B1RdtFzi	B1RdtMxi	B1RdtMyi	B1RdtMzi	T[1]	T_a[1]	T[2]	T_a[2]	T[3]	T_a[3]	T[4]	T_a[4]	T[5]	T_a[5]	T[6]	T_a[6]	T[7]	T_a[7]	T[8]	T_a[8]
(s)	(m/s)	(m/s)	(m/s)	(deg)	(deg)	(deg)	(deg)	(rpm)	(rpm)	(deg)	(m)	(m)	(deg)	(m)	(m)	(deg)	(m)	(m)	(deg)	(m)	(m)	(m)	(m/s^2)	(m/s^2)	(m/s^2)	(m)	(m)	(deg)	(m)	(m)	(m)	(deg)	(deg)	(deg)	(m/s^2)	(m/s^2)	(m/s^2)	(kN)	(kN)	(kN)	(kN-m)	(kN-m)	(kN-m)	(kN)	(kN)	(kN)	(kN-m)	(kN-m)	(kN-m)	(kN)	(kN)	(kN)	(kN-m)	(kN-m)	(kN-m)	(kN-m)	(kN-m)	(kN-m)	(kN-m)	(kN-m)	(kN-m)	(kN-m)	(kN-m)	(kN-m)	(kN)	(kN)	(kN)	(kN-m)	(kN-m)	(kN-m)	(kN)	(kN)	(kN)	(kN-m)	(kN-m)	(kN-m)	(kN)	(kN)	(kN)	(kN-m)	(kN-m)	(kN-m)	(kN-m)	(kN-m)	(kN-m)	(kW)	(kN-m)	(m)	(N)	(N)	(N)	(N-m)	(N-m)	(N-m)	(m)	(m)	(m)	(rad)	(rad)	(rad)	(m/s)	(m/s)	(m/s)	(rad/s)	(rad/s)	(rad/s)	(m/s^2)	(m/s^2)	(m/s^2)	(rad/s^2)	(rad/s^2)	(rad/s^2)	(N)	(N)	(N)	(N-m)	(N-m)	(N-m)	(N)	(N)	(N)	(N-m)	(N-m)	(N-m)	(N)	(N)	(N)	(N-m)	(N-m)	(N-m)	[N]	[N]	[N]	[N]	[N]	[N]	[N]	[N]	[N]	[N]	[N]	[N]	[N]	[N]	[N]	[N]
    0.0000	  1.1623130E+01	  1.7884135E-02	 -2.9758611E-01	  0.0000000E+00	  0.0000000E+00	  0.0000000E+00	  0.0000000E+00	  1.2100001E+01	  1.1737001E+03	  0.0000000E+00	  0.0000000E+00	  0.0000000E+00	  0.0000000E+00	  0.0000000E+00	  0.0000000E+00	  0.0000000E+00	  0.0000000E+00	  0.0000000E+00	  0.0000000E+00	  6.5378838E+01	  5.5506073E+01	  5.5506073E+01	 -1.3176060E-01	 -4.3377817E-02	 -1.1383325E-02	  0.0000000E+00	  0.0000000E+00	  0.0000000E+00	  0.0000000E+00	  0.0000000E+00	  0.0000000E+00	  0.0000000E+00	  0.0000000E+00	  0.0000000E+00	 -5.4390665E-02	 -2.8831866E-01	  6.1385762E-02	  3.1967613E+01	  1.7742474E+00	  4.5142532E+02	 -5.9288521E+00	  3.3930270E+02	  3.8093029E+01	  3.1533510E+01	 -9.0156166E+01	  7.0598755E+02	  8.3603650E+02	  3.2028815E+02	 -1.9393749E+01	  3.0677822E+01	  9.2546341E+01	  7.0775049E+02	 -8.1373474E+02	  3.2981671E+02	 -1.0248253E+00	  2.0536144E+01	 -2.3371950E+01	  2.5202154E+01	 -1.5114557E+02	 -5.7894150E+01	 -1.6682686E+01	  1.6248401E+02	 -2.5822474E+01	 -3.6161673E+00	  6.8743721E+01	  5.3711801E+00	 -9.6529663E+02	  2.4416072E-03	 -1.8868861E+03	  3.0064552E+01	  1.3796052E+01	  6.3702540E+00	 -3.3449653E+03	  3.1807812E+01	 -3.4837561E+02	  7.1081682E-04	 -2.9659498E+00	  3.8828968E+01	 -6.7737158E+03	 -3.5703470E+02	 -8.9279518E+01	  7.1081682E-04	  6.5519844E+01	  1.6276222E+02	  7.1081682E-04	  5.0000000E+03	  4.3093544E+01	 -5.6218468E-02	 -3.5855006E+05	 -3.5780262E+05	  1.2230967E+08	 -9.0610040E+06	  1.4586118E+07	  2.0397218E-02	  0.0000000E+00	  0.0000000E+00	  0.0000000E+00	  0.0000000E+00	  0.0000000E+00	  0.0000000E+00	  0.0000000E+00	  0.0000000E+00	  0.0000000E+00	  0.0000000E+00	  0.0000000E+00	  0.0000000E+00	 -5.4390505E-02	 -2.8831869E-01	  6.1409950E-02	  6.1861132E-03	 -2.9858417E-04	  5.4604293E-11	 -1.3782056E+06	 -1.6366359E+06	 -2.5037361E+04	 -3.3499280E+07	  3.2551142E+07	  2.0397218E-02	  0.0000000E+00	  0.0000000E+00	  1.2242710E+08	  0.0000000E+00	  0.0000000E+00	  0.0000000E+00	  4.2100331E+05	  1.1978936E+06	 -9.2387758E+04	  2.3086016E+07	 -1.0204088E+07	 -9.9860219E-16	  3.8333442E+06	  3.6800205E+06	  3.8333442E+06	  3.6800205E+06	  3.8333442E+06	  3.6800205E+06	  3.8333442E+06	  3.6800205E+06	  3.8333442E+06	  3.6800205E+06	  3.8333442E+06	  3.6800205E+06	  3.8333442E+06	  3.6800205E+06	  3.8333442E+06	  3.6800205E+06
    0.0125	  1.1672230E+01	  4.7469705E-02	 -4.0798470E-01	  0.0000000E+00	  0.0000000E+00	  0.0000000E+00	  9.0775943E-01	  1.2106595E+01	  1.1641934E+03	  2.9265284E-05	  1.1761191E-02	 -1.1691750E-03	  0.0000000E+00	  5.9875930E-03	 -1.2177916E-03	  0.0000000E+00	  7.5044986E-03	  1.3013132E-03	  0.0000000E+00	  6.5377686E+01	  5.5022636E+01	  5.5973228E+01	 -1.2965107E-01	 -7.5897880E-02	 -9.9850837E-03	 -7.2879249E-07	  6.5394423E-05	  0.0000000E+00	 -4.1710136E-06	 -2.2662005E-05	  4.8009333E-06	  2.7877288E-05	 -1.2285395E-06	 -1.4257010E-11	 -5.1377546E-02	 -2.8896236E-01	  6.1288025E-02	  3.1364080E+01	 -3.2653310E+00	  4.5377686E+02	  6.4692932E+01	  3.4678491E+02	  3.1230095E+01	  3.2364033E+01	 -9.1780243E+01	  7.1028333E+02	  8.6436682E+02	  3.4408133E+02	 -2.3042198E+01	  3.1098288E+01	  9.1190819E+01	  7.0524719E+02	 -7.9893134E+02	  3.5114294E+02	 -4.6242013E+00	  2.0094870E-01	 -1.0552237E+01	  1.9210346E+01	 -1.5606482E+02	 -5.6967567E+01	 -1.9875559E+01	  1.5031804E+02	 -2.1972801E+01	 -6.8743992E+00	  6.9088989E+01	 -1.0873455E+01	 -9.6426794E+02	  1.2810651E+02	 -1.9023362E+03	  6.2891884E+01	  1.3737134E+01	  1.2004693E+01	 -3.3438049E+03	  1.4895406E+02	 -3.6197736E+02	  6.1447940E+00	 -2.5921082E+00	  3.6418125E+01	 -6.7725210E+03	 -3.5073398E+02	 -6.7322075E+01	  6.1453176E+00	  3.5533767E+00	  1.5915004E+02	  6.1446233E+00	  4.9602822E+03	  4.3100334E+01	 -5.3516753E-02	 -3.6026219E+05	 -3.5378681E+05	  1.2230798E+08	 -8.9716600E+06	  1.4684414E+07	 -3.7251165E+00	 -4.1710136E-06	 -2.2662005E-05	  4.8009333E-06	  4.8655045E-07	 -2.1442061E-08	 -2.4883177E-13	 -6.5758621E-04	 -3.6363648E-03	  7.6851854E-04	  7.8094927E-05	 -3.1951083E-06	 -7.4821226E-11	 -5.1377624E-02	 -2.8896239E-01	  6.1287612E-02	  6.2054428E-03	 -2.3176403E-04	  1.6970911E-05	 -1.3678532E+06	 -1.6347084E+06	 -2.6901180E+04	 -3.3430138E+07	  3.2420804E+07	  2.0388970E-02	  0.0000000E+00	  0.0000000E+00	  1.2242708E+08	  1.4011857E+03	 -6.1749626E+01	  0.0000000E+00	  4.0897428E+05	  1.1993288E+06	 -9.2203703E+04	  2.3100388E+07	 -9.9775000E+06	 -3.1036368E-10	  3.8333972E+06	  3.6800738E+06	  3.8335215E+06	  3.6801978E+06	  3.8333858E+06	  3.6800622E+06	  3.8332618E+06	  3.6799380E+06	  3.8333972E+06	  3.6800738E+06	  3.8335215E+06	  3.6801978E+06	  3.8333858E+06	  3.6800622E+06	  3.8332618E+06	  3.6799380E+06
    0.0250	  1.1610503E+01	  1.3944244E-01	 -5.8286589E-01	  0.0000000E+00	  0.0000000E+00	  0.0000000E+00	  1.8159286E+00	  1.2110300E+01	  1.1551073E+03	  1.1759121E-04	  4.5259215E-02	 -4.4002892E-03	  0.0000000E+00	  2.2816345E-02	 -4.8868498E-03	  0.0000000E+00	  2.8496927E-02	  5.2454602E-03	  0.0000000E+00	  6.5374344E+01	  5.4523064E+01	  5.6424320E+01	 -1.1447576E-01	 -9.9222846E-02	 -9.8813197E-04	 -3.9882984E-06	  2.5900148E-04	  0.0000000E+00	 -1.6231297E-05	 -9.0605274E-05	  1.9184370E-05	  1.1147596E-04	 -4.3297246E-06	  1.2017236E-07	 -4.6186484E-02	 -2.8899100E-01	  6.0981706E-02	  3.2443638E+01	 -1.1087475E+01	  4.5545471E+02	  1.6120570E+02	  4.0555124E+02	  3.0690229E+01	  3.3001522E+01	 -9.7148621E+01	  7.1480157E+02	  9.4339551E+02	  3.7224182E+02	 -2.6439932E+01	  3.1822269E+01	  8.7170746E+01	  7.0226770E+02	 -7.6804437E+02	  3.9478235E+02	 -7.0038466E+00	 -2.2801594E+01	  1.5030682E+01	  1.9588661E+01	 -1.6990218E+02	 -4.2797123E+01	 -2.1011372E+01	  1.2328349E+02	 -7.0702910E+00	 -7.5956726E+00	  7.0523285E+01	 -2.8537464E+01	 -9.6519855E+02	  3.6651651E+02	 -1.8816835E+03	  8.7480988E+01	  1.1524267E+01	  2.1825912E+01	 -3.3439753E+03	  3.6753699E+02	 -3.5240176E+02	  2.1678364E+01	  4.1629735E-02	  3.3488037E+01	 -6.7725825E+03	 -3.8844275E+02	  1.2077823E+01	  2.1678106E+01	 -1.0087289E+02	  1.2883777E+02	  2.1677595E+01	  4.9230708E+03	  4.3113487E+01	 -5.0815046E-02	 -3.6590131E+05	 -3.5099184E+05	  1.2230655E+08	 -8.8895860E+06	  1.4803224E+07	 -1.4965926E+01	 -1.6231297E-05	 -9.0605274E-05	  1.9184370E-05	  1.9456227E-06	 -7.5567954E-08	  2.0974034E-09	 -1.2557305E-03	 -7.2234012E-03	  1.5316895E-03	  1.5510325E-04	 -5.0952449E-06	  4.0637335E-07	 -4.6186492E-02	 -2.8899115E-01	  6.0981143E-02	  6.2057888E-03	 -9.5337164E-05	  5.9531085E-05	 -1.3575006E+06	 -1.6327809E+06	 -2.8764998E+04	 -3.3360994E+07	  3.2290468E+07	  2.0380722E-02	  0.0000000E+00	  0.0000000E+00	  1.2242705E+08	  5.6030752E+03	 -2.1762334E+02	  0.0000000E+00	  3.9304062E+05	  1.1995542E+06	 -9.1742688E+04	  2.3104828E+07	 -9.7306060E+06	 -1.0887032E-09	  3.8335540E+06	  3.6802302E+06	  3.8340530E+06	  3.6807295E+06	  3.8335135E+06	  3.6801900E+06	  3.8330145E+06	  3.6796908E+06	  3.8335540E+06	  3.6802302E+06	  3.8340530E+06	  3.6807295E+06	  3.8335135E+06	  3.6801900E+06	  3.8330145E+06	  3.6796908E+06
    0.0375	  1.1548779E+01	  2.3140955E-01	 -7.5773633E-01	  0.0000000E+00	  0.0000000E+00	  0.0000000E+00	  2.7240160E+00	  1.2103662E+01	  1.1466750E+03	  2.2321791E-04	  9.8433219E-02	 -9.8216971E-03	  0.0000000E+00	  4.9665697E-02	 -1.1433752E-02	  0.0000000E+00	  6.1607860E-02	  1.1421538E-02	  0.0000000E+00	  6.5368965E+01	  5.4007462E+01	  5.6859566E+01	 -8.5117832E-02	 -1.2439916E-01	  1.3514963E-02	 -1.1174323E-05	  5.7493773E-04	  0.0000000E+00	 -3.5358637E-05	 -2.0341676E-04	  4.3084419E-05	  2.5025330E-04	 -8.1245043E-06	  7.6980285E-07	 -3.9787512E-02	 -2.8764212E-01	  6.0513176E-02	  3.4541611E+01	 -2.0815321E+01	  4.5720810E+02	  2.8811160E+02	  5.1218530E+02	  3.2551525E+01	  3.5149258E+01	 -1.0494702E+02	  7.1919788E+02	  1.0635282E+03	  4.3901849E+02	 -2.5703503E+01	  3.3679466E+01	  8.1712044E+01	  6.9918933E+02	 -7.2777783E+02	  4.7932462E+02	 -6.1751575E+00	 -5.2088005E+01	  4.4824596E+01	  2.1138239E+01	 -1.8678114E+02	 -2.9616554E+01	 -2.0428806E+01	  8.4882744E+01	  9.3590651E+00	 -6.9003725E+00	  7.4815353E+01	 -4.6328777E+01	 -9.6715979E+02	  6.9552240E+02	 -1.8573850E+03	  1.0977943E+02	  8.6937189E+00	  3.4479126E+01	 -3.3450493E+03	  6.7037567E+02	 -3.4540802E+02	  3.7183460E+01	  4.2262530E+00	  3.1058720E+01	 -6.7734902E+03	 -4.9082751E+02	  1.3482854E+02	  3.7181175E+01	 -2.3277708E+02	  8.4103394E+01	  3.7181496E+01	  4.8892783E+03	  4.3132416E+01	 -4.8113335E-02	 -3.7467875E+05	 -3.5122931E+05	  1.2230532E+08	 -8.8364410E+06	  1.4962327E+07	 -3.3648769E+01	 -3.5358637E-05	 -2.0341676E-04	  4.3084419E-05	  4.3677442E-06	 -1.4179936E-07	  1.3435596E-08	 -1.7900959E-03	 -1.0817882E-02	  2.2914505E-03	  2.3222111E-04	 -5.0922135E-06	  1.5497507E-06	 -3.9787479E-02	 -2.8764248E-01	  6.0511570E-02	  6.1650057E-03	  7.5371841E-05	  1.0166552E-04	 -1.3471482E+06	 -1.6308535E+06	 -3.0628818E+04	 -3.3291852E+07	  3.2160132E+07	  2.0372476E-02	  0.0000000E+00	  0.0000000E+00	  1.2242698E+08	  1.2578389E+04	 -4.0835880E+02	  0.0000000E+00	  3.7398519E+05	  1.1967452E+06	 -9.1036367E+04	  2.3077544E+07	 -9.4434720E+06	 -1.8592585E-09	  3.8338080E+06	  3.6804842E+06	  3.8349360E+06	  3.6816122E+06	  3.8337322E+06	  3.6804085E+06	  3.8326042E+06	  3.6792805E+06	  3.8338080E+06	  3.6804842E+06	  3.8349360E+06	  3.6816122E+06	  3.8337322E+06	  3.6804085E+06	  3.8326042E+06	  3.6792805E+06
    0.0500	  1.1487053E+01	  3.2338229E-01	 -9.3261755E-01	  0.0000000E+00	  0.0000000E+00	  0.0000000E+00	  3.6312835E+00	  1.2088665E+01	  1.1390762E+03	  2.5293714E-04	  1.7160636E-01	 -1.8768322E-02	  0.0000000E+00	  8.7576769E-02	 -2.1925602E-02	  0.0000000E+00	  1.0787387E-01	  1.8615559E-02	  0.0000000E+00	  6.5361488E+01	  5.3475471E+01	  5.7279041E+01	 -4.4113766E-02	 -1.5664536E-01	  3.3047039E-02	 -2.1824480E-05	  1.0080130E-03	  0.0000000E+00	 -6.0672221E-05	 -3.6102469E-04	  7.6441822E-05	  4.4401974E-04	 -1.1171400E-05	  2.3827699E-06	 -3.2352090E-02	 -2.8414777E-01	  5.9870902E-02	  3.7836224E+01	 -3.2016464E+01	  4.5863327E+02	  4.4340652E+02	  6.6359259E+02	  3.3151127E+01	  3.7828842E+01	 -1.1434267E+02	  7.2333484E+02	  1.2162633E+03	  5.2838800E+02	 -2.5679930E+01	  3.6361847E+01	  7.5496048E+01	  6.9611188E+02	 -6.8471167E+02	  5.9458777E+02	 -5.8408465E+00	 -8.3373192E+01	  8.3916359E+01	  2.1468483E+01	 -2.0273775E+02	 -1.1720309E+01	 -2.0477970E+01	  3.9602234E+01	  3.2066017E+01	 -6.7332273E+00	  8.1022171E+01	 -6.3763939E+01	 -9.7036487E+02	  1.0951296E+03	 -1.8175428E+03	  1.2381496E+02	  4.8992605E+00	  4.8512558E+01	 -3.3471594E+03	  1.0395945E+03	 -3.2998700E+02	  3.9013378E+01	  9.8116035E+00	  3.0248989E+01	 -6.7753735E+03	 -6.8106812E+02	  2.9307620E+02	  3.9008320E+01	 -3.7590219E+02	  2.4328569E+01	  3.9009579E+01	  4.8595820E+03	  4.3156433E+01	 -4.5411624E-02	 -3.8618081E+05	 -3.5655094E+05	  1.2230434E+08	 -8.8393870E+06	  1.5156912E+07	 -5.9773415E+01	 -6.0672221E-05	 -3.6102469E-04	  7.6441822E-05	  7.7496070E-06	 -1.9497772E-07	  4.1587182E-08	 -2.2505997E-03	 -1.4379089E-02	  3.0438968E-03	  3.0836451E-04	 -3.1325390E-06	  3.0817812E-06	 -3.2352205E-02	 -2.8414822E-01	  5.9868742E-02	  6.0615018E-03	  2.7538490E-04	  1.0582823E-04	 -1.3367958E+06	 -1.6289260E+06	 -3.2492635E+04	 -3.3222710E+07	  3.2029796E+07	  2.0364230E-02	  0.0000000E+00	  0.0000000E+00	  1.2242690E+08	  2.2317600E+04	 -5.6150299E+02	  0.0000000E+00	  3.5222856E+05	  1.1888580E+06	 -9.0069484E+04	  2.2991450E+07	 -9.1211050E+06	 -1.9353938E-09	  3.8341520E+06	  3.6808282E+06	  3.8361685E+06	  3.6828448E+06	  3.8340478E+06	  3.6807242E+06	  3.8320312E+06	  3.6787078E+06	  3.8341520E+06	  3.6808282E+06	  3.8361685E+06	  3.6828448E+06	  3.8340478E+06	  3.6807242E+06	  3.8320312E+06	  3.6787078E+06
    0.0625	  1.1421669E+01	  4.0302056E-01	 -1.0499061E+00	  0.0000000E+00	  0.0000000E+00	  0.0000000E+00	  4.5370483E+00	  1.2063307E+01	  1.1324553E+03	  1.4720258E-04	  2.6258352E-01	 -3.1907205E-02	  0.0000000E+00	  1.3560416E-01	 -3.7147272E-02	  0.0000000E+00	  1.6599648E-01	  2.5954273E-02	  0.0000000E+00	  6.5352028E+01	  5.2927147E+01	  5.7683010E+01	  8.6798789E-03	 -1.9697800E-01	  5.7107899E-02	 -3.4794080E-05	  1.5499295E-03	  0.0000000E+00	 -9.1142043E-05	 -5.6278805E-04	  1.1914701E-04	  6.9171807E-04	 -1.1886096E-05	  5.0004969E-06	 -2.4173802E-02	 -2.7771986E-01	  5.9057172E-02	  4.2494370E+01	 -4.3833828E+01	  4.5963593E+02	  6.1944983E+02	  8.6225433E+02	  3.2694351E+01	  4.0970848E+01	 -1.2463438E+02	  7.2701416E+02	  1.3959038E+03	  6.4003217E+02	 -2.5345284E+01	  3.9959221E+01	  6.9249184E+01	  6.9301593E+02	 -6.4449274E+02	  7.4079736E+02	 -5.6874814E+00	 -1.1210821E+02	  1.3089621E+02	  2.0813488E+01	 -2.1382851E+02	  1.1094390E+01	 -2.0154469E+01	 -8.2352428E+00	  6.1266716E+01	 -6.7523165E+00	  8.9336220E+01	 -8.0272263E+01	 -9.7481079E+02	  1.5419781E+03	 -1.7600015E+03	  1.2725806E+02	  2.9778358E-01	  6.2364433E+01	 -3.3503267E+03	  1.4544808E+03	 -3.0279919E+02	  1.7989700E+01	  1.6464109E+01	  3.2232807E+01	 -6.7782505E+03	 -9.8238965E+02	  4.7584290E+02	  1.7981644E+01	 -5.1235388E+02	 -4.7881474E+01	  1.7983631E+01	  4.8345068E+03	  4.3184757E+01	 -4.2709909E-02	 -3.9967038E+05	 -3.6907131E+05	  1.2230359E+08	 -8.9266610E+06	  1.5377718E+07	 -9.3224197E+01	 -9.1142043E-05	 -5.6278805E-04	  1.1914701E-04	  1.2072758E-05	 -2.0745154E-07	  8.7275140E-08	 -2.6091021E-03	 -1.7881000E-02	  3.7872589E-03	  3.8275294E-04	  1.5684415E-06	  4.2328725E-06	 -2.4173427E-02	 -2.7772054E-01	  5.9053581E-02	  5.8731879E-03	  4.9633969E-04	  4.6826448E-05	 -1.3264432E+06	 -1.6269985E+06	 -3.4356453E+04	 -3.3153568E+07	  3.1899458E+07	  2.0355983E-02	  0.0000000E+00	  0.0000000E+00	  1.2242679E+08	  3.4767570E+04	 -5.9742346E+02	  0.0000000E+00	  3.2851812E+05	  1.1737830E+06	 -8.8843422E+04	  2.2818388E+07	 -8.7729170E+06	 -8.5638868E-10	  3.8345775E+06	  3.6812538E+06	  3.8377445E+06	  3.6844210E+06	  3.8344668E+06	  3.6811430E+06	  3.8312995E+06	  3.6779760E+06	  3.8345775E+06	  3.6812538E+06	  3.8377445E+06	  3.6844210E+06	  3.8344668E+06	  3.6811430E+06	  3.8312995E+06	  3.6779760E+06
    0.0750	  1.1348967E+01	  4.5799816E-01	 -1.0520413E+00	  0.0000000E+00	  0.0000000E+00	  0.0000000E+00	  5.4405460E+00	  1.2028601E+01	  1.1268859E+03	 -1.3712051E-04	  3.6963409E-01	 -5.0094083E-02	  0.0000000E+00	  1.9315879E-01	 -5.8013912E-02	  0.0000000E+00	  2.3517758E-01	  3.2382920E-02	  0.0000000E+00	  6.5340698E+01	  5.2362484E+01	  5.8071693E+01	  7.2122253E-02	 -2.4310978E-01	  8.4855400E-02	 -4.7886653E-05	  2.1909054E-03	  0.0000000E+00	 -1.2542801E-04	 -8.0773683E-04	  1.7107668E-04	  9.9170662E-04	 -8.2043007E-06	  8.0618047E-06	 -1.5620929E-02	 -2.6767439E-01	  5.8071911E-02	  4.8570457E+01	 -5.5467667E+01	  4.6020892E+02	  8.0894971E+02	  1.1072340E+03	  3.1183292E+01	  4.4228195E+01	 -1.3505605E+02	  7.3024585E+02	  1.5957445E+03	  7.6726691E+02	 -2.6576014E+01	  4.4508572E+01	  6.3686314E+01	  6.8990356E+02	 -6.1227478E+02	  9.1705457E+02	 -6.1890020E+00	 -1.3336502E+02	  1.8511934E+02	  1.9200142E+01	 -2.1586720E+02	  4.0572773E+01	 -2.1315283E+01	 -5.4036800E+01	  9.6800468E+01	 -7.4510431E+00	  9.9567642E+01	 -9.5831894E+01	 -9.8041302E+02	  2.0127703E+03	 -1.6801692E+03	  1.1567697E+02	 -5.0225072E+00	  7.4555496E+01	 -3.3545051E+03	  1.8943474E+03	 -2.5772250E+02	 -3.1725447E+01	  2.3763712E+01	  3.8058327E+01	 -6.7820830E+03	 -1.4143583E+03	  6.6890363E+02	 -3.1738340E+01	 -6.2537189E+02	 -1.2951363E+02	 -3.1733627E+01	  4.8142744E+03	  4.3216568E+01	 -4.0008202E-02	 -4.1421019E+05	 -3.9064022E+05	  1.2230308E+08	 -9.1231560E+06	  1.5613116E+07	 -1.3381740E+02	 -1.2542801E-04	 -8.0773683E-04	  1.7107668E-04	  1.7308546E-05	 -1.4319207E-07	  1.4070505E-07	 -2.8662304E-03	 -2.1280691E-02	  4.5194291E-03	  4.5415616E-04	  9.0224075E-06	  4.1204407E-06	 -1.5620627E-02	 -2.6767540E-01	  5.8067076E-02	  5.5809310E-03	  7.2765833E-04	 -9.1339112E-05	 -1.3160908E+06	 -1.6250710E+06	 -3.6220273E+04	 -3.3084424E+07	  3.1769122E+07	  2.0347735E-02	  0.0000000E+00	  0.0000000E+00	  1.2242666E+08	  4.9845781E+04	 -4.1236270E+02	  0.0000000E+00	  3.0379162E+05	  1.1496778E+06	 -8.7359672E+04	  2.2533590E+07	 -8.4106290E+06	  1.6703514E-09	  3.8350738E+06	  3.6817500E+06	  3.8396555E+06	  3.6863318E+06	  3.8349972E+06	  3.6816738E+06	  3.8304155E+06	  3.6770918E+06	  3.8350738E+06	  3.6817500E+06	  3.8396555E+06	  3.6863318E+06	  3.8349972E+06	  3.6816738E+06	  3.8304155E+06	  3.6770918E+06
    0.0875	  1.1276258E+01	  5.1297915E-01	 -1.0541766E+00	  0.0000000E+00	  0.0000000E+00	  0.0000000E+00	  6.3411474E+00	  1.1985953E+01	  1.1224012E+03	 -6.0274318E-04	  4.9112317E-01	 -7.4007362E-02	  0.0000000E+00	  2.5921005E-01	 -8.5245967E-02	  0.0000000E+00	  3.1435895E-01	  3.7009191E-02	  0.0000000E+00	  6.5327568E+01	  5.1781593E+01	  5.8445309E+01	  1.4608523E-01	 -2.9370916E-01	  1.1514342E-01	 -5.8046149E-05	  2.9190751E-03	  0.0000000E+00	 -1.6226851E-04	 -1.0942908E-03	  2.3207701E-04	  1.3413513E-03	  1.8393150E-06	  1.0295621E-05	 -7.2224583E-03	 -2.5353363E-01	  5.6912187E-02	  5.6154366E+01	 -6.6178497E+01	  4.6037170E+02	  1.0056343E+03	  1.3987605E+03	  2.8873985E+01	  4.7856102E+01	 -1.4491545E+02	  7.3300946E+02	  1.8102517E+03	  9.1401843E+02	 -2.7848537E+01	  5.0075020E+01	  5.9528286E+01	  6.8677991E+02	 -5.9363190E+02	  1.1238105E+03	 -6.6263070E+00	 -1.4310725E+02	  2.4530408E+02	  1.6895594E+01	 -2.0505800E+02	  7.5289803E+01	 -2.2419689E+01	 -9.3561996E+01	  1.3788922E+02	 -8.1192255E+00	  1.1213359E+02	 -1.1037859E+02	 -9.8710126E+02	  2.4859436E+03	 -1.5806763E+03	  9.1305000E+01	 -1.0619774E+01	  8.3865814E+01	 -3.3597688E+03	  2.3402908E+03	 -1.9547668E+02	 -1.0966640E+02	  3.1038376E+01	  4.8521015E+01	 -6.7869316E+03	 -1.9892665E+03	  8.5417316E+02	 -1.0968454E+02	 -7.0123151E+02	 -2.1399419E+02	 -1.0967562E+02	  4.7989390E+03	  4.3251026E+01	 -3.7306488E-02	 -4.2843194E+05	 -4.2257562E+05	  1.2230281E+08	 -9.4470340E+06	  1.5845588E+07	 -1.8123154E+02	 -1.6226851E-04	 -1.0942908E-03	  2.3207701E-04	  2.3410999E-05	  3.2102104E-08	  1.7969249E-07	 -3.0162390E-03	 -2.4534075E-02	  5.2382424E-03	  5.2128773E-04	  1.9372763E-05	  1.7028779E-06	 -7.2224890E-03	 -2.5353497E-01	  5.6906197E-02	  5.1714666E-03	  9.5433358E-04	 -3.0727917E-04	 -1.3057382E+06	 -1.6231435E+06	 -3.8084090E+04	 -3.3015282E+07	  3.1638784E+07	  2.0339487E-02	  0.0000000E+00	  0.0000000E+00	  1.2242650E+08	  6.7419852E+04	  9.2460922E+01	  0.0000000E+00	  2.7942047E+05	  1.1152320E+06	 -8.5613664E+04	  2.2119074E+07	 -8.0518825E+06	  5.6194258E-09	  3.8356300E+06	  3.6823065E+06	  3.8418875E+06	  3.6885638E+06	  3.8356472E+06	  3.6823235E+06	  3.8293898E+06	  3.6760660E+06	  3.8356300E+06	  3.6823065E+06	  3.8418875E+06	  3.6885638E+06	  3.8356472E+06	  3.6823235E+06	  3.8293898E+06	  3.6760660E+06
    0.1000	  1.1203556E+01	  5.6795681E-01	 -1.0563118E+00	  0.0000000E+00	  0.0000000E+00	  0.0000000E+00	  7.2383337E+00	  1.1937977E+01	  1.1189835E+03	 -1.2137516E-03	  6.2572533E-01	 -1.0416622E-01	  0.0000000E+00	  3.3283582E-01	 -1.1938824E-01	  0.0000000E+00	  4.0256271E-01	  3.9093584E-02	  0.0000000E+00	  6.5312706E+01	  5.1184597E+01	  5.8804039E+01	  2.2784992E-01	 -3.4232220E-01	  1.4538403E-01	 -6.0504917E-05	  3.7209236E-03	  0.0000000E+00	 -2.0034262E-04	 -1.4203046E-03	  3.0196726E-04	  1.7370722E-03	  2.0285997E-05	  9.7289712E-06	  3.2078160E-04	 -2.3512420E-01	  5.5578772E-02	  6.4805634E+01	 -7.5348610E+01	  4.6018518E+02	  1.2030885E+03	  1.7272316E+03	  2.5719671E+01	  5.2236469E+01	 -1.5356218E+02	  7.3542096E+02	  2.0340344E+03	  1.0855618E+03	 -2.9204592E+01	  5.6895481E+01	  5.7301460E+01	  6.8352948E+02	 -5.9192926E+02	  1.3647191E+03	 -7.1798072E+00	 -1.3814235E+02	  3.1271286E+02	  1.3974236E+01	 -1.7812955E+02	  1.1352468E+02	 -2.3433241E+01	 -1.2343777E+02	  1.8281769E+02	 -8.9289703E+00	  1.2736507E+02	 -1.2454993E+02	 -9.9448505E+02	  2.9429734E+03	 -1.4760159E+03	  5.6933075E+01	 -1.5513324E+01	  8.9437851E+01	 -3.3661294E+03	  2.7760210E+03	 -1.2678184E+02	 -2.0891364E+02	  3.7342484E+01	  6.4008293E+01	 -6.7928188E+03	 -2.7094084E+03	  1.0090820E+03	 -2.0893391E+02	 -7.3067896E+02	 -2.8991968E+02	 -2.0892200E+02	  4.7883418E+03	  4.3287331E+01	 -3.4604780E-02	 -4.4049838E+05	 -4.6540075E+05	  1.2230277E+08	 -9.9061390E+06	  1.6051298E+07	 -2.3501949E+02	 -2.0034262E-04	 -1.4203046E-03	  3.0196726E-04	  3.0317631E-05	  3.5405745E-07	  1.6980259E-07	 -3.0666511E-03	 -2.7588332E-02	  5.9413803E-03	  5.8263715E-04	  3.2409425E-05	 -3.8927501E-06	  3.2074377E-04	 -2.3512588E-01	  5.5571359E-02	  4.6401410E-03	  1.1565724E-03	 -5.8178836E-04	 -1.2953859E+06	 -1.6212160E+06	 -3.9947910E+04	 -3.2946140E+07	  3.1508448E+07	  2.0331241E-02	  0.0000000E+00	  0.0000000E+00	  1.2242633E+08	  8.7309820E+04	  1.0196423E+03	  0.0000000E+00	  2.5724045E+05	  1.0699316E+06	 -8.3606031E+04	  2.1567228E+07	 -7.7206085E+06	  1.0639622E-08	  3.8362350E+06	  3.6829115E+06	  3.8444220E+06	  3.6910985E+06	  3.8364240E+06	  3.6831005E+06	  3.8282372E+06	  3.6749135E+06	  3.8362350E+06	  3.6829115E+06	  3.8444220E+06	  3.6910985E+06	  3.8364240E+06	  3.6831005E+06	  3.8282372E+06	  3.6749135E+06
    0.1125	  1.1164871E+01	  6.2027699E-01	 -1.0960101E+00	  0.0000000E+00	  0.0000000E+00	  0.0000000E+00	  8.1318045E+00	  1.1887770E+01	  1.1165790E+03	 -1.8984129E-03	  7.7216381E-01	 -1.4077617E-01	  0.0000000E+00	  4.1346759E-01	 -1.6068797E-01	  0.0000000E+00	  4.9893320E-01	  3.8181555E-02	  0.0000000E+00	  6.5296165E+01	  5.0571606E+01	  5.9148018E+01	  3.1451982E-01	 -3.7999612E-01	  1.7358443E-01	 -4.8761332E-05	  4.5812191E-03	  0.0000000E+00	 -2.3849914E-04	 -1.7829569E-03	  3.8053782E-04	  2.1741847E-03	  4.8907918E-05	  3.8737826E-06	  6.4701163E-03	 -2.1263033E-01	  5.4087233E-02	  7.4200890E+01	 -8.2661423E+01	  4.5976260E+02	  1.3973464E+03	  2.0842415E+03	  2.2027361E+01	  5.7417168E+01	 -1.6044574E+02	  7.3767279E+02	  2.2612925E+03	  1.2806038E+03	 -3.0556660E+01	  6.4959602E+01	  5.7340137E+01	  6.7996796E+02	 -6.0929602E+02	  1.6396045E+03	 -7.7106709E+00	 -1.1674145E+02	  3.8815924E+02	  1.0773750E+01	 -1.3292767E+02	  1.5557895E+02	 -2.4264879E+01	 -1.4163388E+02	  2.3075246E+02	 -9.7479000E+00	  1.4513622E+02	 -1.3954175E+02	 -1.0020091E+03	  3.3697156E+03	 -1.3731123E+03	  1.4151031E+01	 -1.9122185E+01	  9.0873634E+01	 -3.3734365E+03	  3.1889695E+03	 -5.5595936E+01	 -3.1764395E+02	  4.1972527E+01	  8.4439461E+01	 -6.7996025E+03	 -3.5653010E+03	  1.1154703E+03	 -3.1766437E+02	 -7.0989771E+02	 -3.4918781E+02	 -3.1764865E+02	  4.7821792E+03	  4.3324722E+01	 -3.1903066E-02	 -4.4900331E+05	 -5.1870519E+05	  1.2230295E+08	 -1.0496302E+07	  1.6212182E+07	 -2.9457874E+02	 -2.3849914E-04	 -1.7829569E-03	  3.8053782E-04	  3.7946684E-05	  8.5360426E-07	  6.7610266E-08	 -3.0308219E-03	 -3.0392846E-02	  6.6268151E-03	  6.3675077E-04	  4.7740999E-05	 -1.3185766E-05	  6.4701196E-03	 -2.1263237E-01	  5.4078776E-02	  3.9924318E-03	  1.3190976E-03	 -8.8213856E-04	 -1.2850332E+06	 -1.6192885E+06	 -4.1811727E+04	 -3.2876996E+07	  3.1378110E+07	  2.0322993E-02	  0.0000000E+00	  0.0000000E+00	  1.2242612E+08	  1.0928024E+05	  2.4582480E+03	  0.0000000E+00	  2.3865447E+05	  1.0141955E+06	 -8.1361148E+04	  2.0882510E+07	 -7.4349355E+06	  1.6132429E-08	  3.8368785E+06	  3.6835550E+06	  3.8472352E+06	  3.6939118E+06	  3.8373342E+06	  3.6840108E+06	  3.8269778E+06	  3.6736540E+06	  3.8368785E+06	  3.6835550E+06	  3.8472352E+06	  3.6939118E+06	  3.8373342E+06	  3.6840108E+06	  3.8269778E+06	  3.6736540E+06
    0.1250	  1.1194221E+01	  6.6727459E-01	 -1.2108206E+00	  0.0000000E+00	  0.0000000E+00	  0.0000000E+00	  9.0215321E+00	  1.1838741E+01	  1.1151063E+03	 -2.5775018E-03	  9.2916328E-01	 -1.8370457E-01	  0.0000000E+00	  5.0079310E-01	 -2.0904724E-01	  0.0000000E+00	  6.0287106E-01	  3.4129601E-02	  0.0000000E+00	  6.5278015E+01	  4.9942749E+01	  5.9477322E+01	  4.0491524E-01	 -4.0170920E-01	  1.9894637E-01	 -1.4627945E-05	  5.4833954E-03	  0.0000000E+00	 -2.7577011E-04	 -2.1788238E-03	  4.6755627E-04	  2.6470125E-03	  8.9167421E-05	 -9.9721474E-06	  1.0905367E-02	 -1.8659855E-01	  5.2444279E-02	  8.4422729E+01	 -8.8006912E+01	  4.5918188E+02	  1.5865419E+03	  2.4688513E+03	  1.7736317E+01	  6.3349121E+01	 -1.6525209E+02	  7.3989661E+02	  2.4876970E+03	  1.4964209E+03	 -3.2170776E+01	  7.3991661E+01	  5.9847794E+01	  6.7601740E+02	 -6.4769562E+02	  1.9436890E+03	 -8.3315897E+00	 -7.8373108E+01	  4.7010727E+02	  7.2859354E+00	 -6.8753021E+01	  2.0179295E+02	 -2.5101269E+01	 -1.4731335E+02	  2.8187827E+02	 -1.0645590E+01	  1.6526665E+02	 -1.5613466E+02	 -1.0093484E+03	  3.7568928E+03	 -1.2679369E+03	 -3.3274567E+01	 -2.1336725E+01	  8.8251190E+01	 -3.3816204E+03	  3.5706169E+03	  2.2676163E+01	 -4.2348862E+02	  4.4546848E+01	  1.0924994E+02	 -6.8072109E+03	 -4.5355278E+03	  1.1613831E+03	 -4.2350479E+02	 -6.4084540E+02	 -3.8816553E+02	 -4.2348615E+02	  4.7800381E+03	  4.3362514E+01	 -2.9201357E-02	 -4.5312425E+05	 -5.8113106E+05	  1.2230333E+08	 -1.1201104E+07	  1.6317985E+07	 -3.5916684E+02	 -2.7577011E-04	 -2.1788238E-03	  4.6755627E-04	  4.6199086E-05	  1.5562653E-06	 -1.7404680E-07	 -2.9272968E-03	 -3.2899369E-02	  7.2926758E-03	  6.8225584E-04	  6.4833002E-05	 -2.6224210E-05	  1.0905409E-02	 -1.8660098E-01	  5.2435976E-02	  3.2440694E-03	  1.4327638E-03	 -1.1741412E-03	 -1.2746808E+06	 -1.6173610E+06	 -4.3675547E+04	 -3.2807856E+07	  3.1247774E+07	  2.0314746E-02	  0.0000000E+00	  0.0000000E+00	  1.2242590E+08	  1.3304581E+05	  4.4817666E+03	  0.0000000E+00	  2.2447983E+05	  9.4938956E+05	 -7.8890359E+04	  2.0081676E+07	 -7.2051680E+06	  2.1472635E-08	  3.8375515E+06	  3.6842278E+06	  3.8502985E+06	  3.6969748E+06	  3.8383822E+06	  3.6850588E+06	  3.8256352E+06	  3.6723118E+06	  3.8375515E+06	  3.6842278E+06	  3.8502985E+06	  3.6969748E+06	  3.8383822E+06	  3.6850588E+06	  3.8256352E+06	  3.6723118E+06