
Linearized model: Predictions were generated on 03-Jul-2025 at 03:22:02 using OpenFAST, compiled on Jun 19 2025 at 03:54:01 as a 64-bit application using single precision at commit v4.1.0
 linked with  NWTC Subroutine Library; ElastoDyn; InflowWind; AeroDyn; ServoDyn

Description from the FAST input file: NREL                   MW          - Baseline Wind Turbine (Onshore), Linearization with AeroDyn + ED

Simulation information:
   Simulation time:                     0.0000 s
   Rotor Speed:                         0.4134 rad/s
   Azimuth:                             0.0000 rad
   Wind Speed:                          8.0000 m/s
   Number of continuous states:       260
   Number of discrete states:           0
   Number of constraint states:         0
   Number of inputs:                   69
   Number of outputs:                  38
   Jacobians included in this file?    No

Order of continuous states:
   Row/Column Operating Point                                                   Rotating Frame? Derivative Order Description
   ---------- ---------------                                                   --------------- ---------------- -----------
          1    0.000000000000E+000                                                     F               2         ED 1st tower fore-aft bending mode DOF (internal DOF index = DOF_TFA1), m
          2    0.000000000000E+000                                                     F               2         ED 1st tower side-to-side bending mode DOF (internal DOF index = DOF_TSS1), m
          3    0.000000000000E+000                                                     F               2         ED 2nd tower fore-aft bending mode DOF (internal DOF index = DOF_TFA2), m
          4    0.000000000000E+000                                                     F               2         ED 2nd tower side-to-side bending mode DOF (internal DOF index = DOF_TSS2), m
          5    0.000000000000E+000                                                     F               2         ED Nacelle yaw DOF (internal DOF index = DOF_Yaw), rad
          6    4.712388992310E+000                                                     F               2         ED Variable speed generator DOF (internal DOF index = DOF_GeAz), rad
          7    0.000000000000E+000                                                     F               2         ED Drivetrain rotational-flexibility DOF (internal DOF index = DOF_DrTr), rad
          8    0.000000000000E+000                                                     T               2         ED 1st flapwise bending-mode DOF of blade 1 (internal DOF index = DOF_BF(1,1)), m
          9    0.000000000000E+000                                                     T               2         ED 1st flapwise bending-mode DOF of blade 2 (internal DOF index = DOF_BF(2,1)), m
         10    0.000000000000E+000                                                     T               2         ED 1st flapwise bending-mode DOF of blade 3 (internal DOF index = DOF_BF(3,1)), m
         11    0.000000000000E+000                                                     T               2         ED 1st edgewise bending-mode DOF of blade 1 (internal DOF index = DOF_BE(1,1)), m
         12    0.000000000000E+000                                                     T               2         ED 1st edgewise bending-mode DOF of blade 2 (internal DOF index = DOF_BE(2,1)), m
         13    0.000000000000E+000                                                     T               2         ED 1st edgewise bending-mode DOF of blade 3 (internal DOF index = DOF_BE(3,1)), m
         14    0.000000000000E+000                                                     T               2         ED 2nd flapwise bending-mode DOF of blade 1 (internal DOF index = DOF_BF(1,2)), m
         15    0.000000000000E+000                                                     T               2         ED 2nd flapwise bending-mode DOF of blade 2 (internal DOF index = DOF_BF(2,2)), m
         16    0.000000000000E+000                                                     T               2         ED 2nd flapwise bending-mode DOF of blade 3 (internal DOF index = DOF_BF(3,2)), m
         17    0.000000000000E+000                                                     F               2         ED First time derivative of 1st tower fore-aft bending mode DOF (internal DOF index = DOF_TFA1), m/s
         18    0.000000000000E+000                                                     F               2         ED First time derivative of 1st tower side-to-side bending mode DOF (internal DOF index = DOF_TSS1), m/s
         19    0.000000000000E+000                                                     F               2         ED First time derivative of 2nd tower fore-aft bending mode DOF (internal DOF index = DOF_TFA2), m/s
         20    0.000000000000E+000                                                     F               2         ED First time derivative of 2nd tower side-to-side bending mode DOF (internal DOF index = DOF_TSS2), m/s
         21    0.000000000000E+000                                                     F               2         ED First time derivative of Nacelle yaw DOF (internal DOF index = DOF_Yaw), rad/s
         22    4.133674502373E-001                                                     F               2         ED First time derivative of Variable speed generator DOF (internal DOF index = DOF_GeAz), rad/s
         23    0.000000000000E+000                                                     F               2         ED First time derivative of Drivetrain rotational-flexibility DOF (internal DOF index = DOF_DrTr), rad/s
         24    0.000000000000E+000                                                     T               2         ED First time derivative of 1st flapwise bending-mode DOF of blade 1 (internal DOF index = DOF_BF(1,1)), m/s
         25    0.000000000000E+000                                                     T               2         ED First time derivative of 1st flapwise bending-mode DOF of blade 2 (internal DOF index = DOF_BF(2,1)), m/s
         26    0.000000000000E+000                                                     T               2         ED First time derivative of 1st flapwise bending-mode DOF of blade 3 (internal DOF index = DOF_BF(3,1)), m/s
         27    0.000000000000E+000                                                     T               2         ED First time derivative of 1st edgewise bending-mode DOF of blade 1 (internal DOF index = DOF_BE(1,1)), m/s
         28    0.000000000000E+000                                                     T               2         ED First time derivative of 1st edgewise bending-mode DOF of blade 2 (internal DOF index = DOF_BE(2,1)), m/s
         29    0.000000000000E+000                                                     T               2         ED First time derivative of 1st edgewise bending-mode DOF of blade 3 (internal DOF index = DOF_BE(3,1)), m/s
         30    0.000000000000E+000                                                     T               2         ED First time derivative of 2nd flapwise bending-mode DOF of blade 1 (internal DOF index = DOF_BF(1,2)), m/s
         31    0.000000000000E+000                                                     T               2         ED First time derivative of 2nd flapwise bending-mode DOF of blade 2 (internal DOF index = DOF_BF(2,2)), m/s
         32    0.000000000000E+000                                                     T               2         ED First time derivative of 2nd flapwise bending-mode DOF of blade 3 (internal DOF index = DOF_BF(3,2)), m/s
         33    0.000000000000E+000                                                     T               2         AD vind (axial) at blade 1, node 1, m/s
         34    0.000000000000E+000                                                     T               2         AD vind (tangential) at blade 1, node 1, m/s
         35    0.000000000000E+000                                                     T               2         AD vind (axial) at blade 1, node 2, m/s
         36    0.000000000000E+000                                                     T               2         AD vind (tangential) at blade 1, node 2, m/s
         37    0.000000000000E+000                                                     T               2         AD vind (axial) at blade 1, node 3, m/s
         38    0.000000000000E+000                                                     T               2         AD vind (tangential) at blade 1, node 3, m/s
         39    0.000000000000E+000                                                     T               2         AD vind (axial) at blade 1, node 4, m/s
         40    0.000000000000E+000                                                     T               2         AD vind (tangential) at blade 1, node 4, m/s
         41    0.000000000000E+000                                                     T               2         AD vind (axial) at blade 1, node 5, m/s
         42    0.000000000000E+000                                                     T               2         AD vind (tangential) at blade 1, node 5, m/s
         43    0.000000000000E+000                                                     T               2         AD vind (axial) at blade 1, node 6, m/s
         44    0.000000000000E+000                                                     T               2         AD vind (tangential) at blade 1, node 6, m/s
         45    0.000000000000E+000                                                     T               2         AD vind (axial) at blade 1, node 7, m/s
         46    0.000000000000E+000                                                     T               2         AD vind (tangential) at blade 1, node 7, m/s
         47    0.000000000000E+000                                                     T               2         AD vind (axial) at blade 1, node 8, m/s
         48    0.000000000000E+000                                                     T               2         AD vind (tangential) at blade 1, node 8, m/s
         49    0.000000000000E+000                                                     T               2         AD vind (axial) at blade 1, node 9, m/s
         50    0.000000000000E+000                                                     T               2         AD vind (tangential) at blade 1, node 9, m/s
         51    0.000000000000E+000                                                     T               2         AD vind (axial) at blade 1, node 10, m/s
         52    0.000000000000E+000                                                     T               2         AD vind (tangential) at blade 1, node 10, m/s
         53    0.000000000000E+000                                                     T               2         AD vind (axial) at blade 1, node 11, m/s
         54    0.000000000000E+000                                                     T               2         AD vind (tangential) at blade 1, node 11, m/s
         55    0.000000000000E+000                                                     T               2         AD vind (axial) at blade 1, node 12, m/s
         56    0.000000000000E+000                                                     T               2         AD vind (tangential) at blade 1, node 12, m/s
         57    0.000000000000E+000                                                     T               2         AD vind (axial) at blade 1, node 13, m/s
         58    0.000000000000E+000                                                     T               2         AD vind (tangential) at blade 1, node 13, m/s
         59    0.000000000000E+000                                                     T               2         AD vind (axial) at blade 1, node 14, m/s
         60    0.000000000000E+000                                                     T               2         AD vind (tangential) at blade 1, node 14, m/s
         61    0.000000000000E+000                                                     T               2         AD vind (axial) at blade 1, node 15, m/s
         62    0.000000000000E+000                                                     T               2         AD vind (tangential) at blade 1, node 15, m/s
         63    0.000000000000E+000                                                     T               2         AD vind (axial) at blade 1, node 16, m/s
         64    0.000000000000E+000                                                     T               2         AD vind (tangential) at blade 1, node 16, m/s
         65    0.000000000000E+000                                                     T               2         AD vind (axial) at blade 1, node 17, m/s
         66    0.000000000000E+000                                                     T               2         AD vind (tangential) at blade 1, node 17, m/s
         67    0.000000000000E+000                                                     T               2         AD vind (axial) at blade 1, node 18, m/s
         68    0.000000000000E+000                                                     T               2         AD vind (tangential) at blade 1, node 18, m/s
         69    0.000000000000E+000                                                     T               2         AD vind (axial) at blade 1, node 19, m/s
         70    0.000000000000E+000                                                     T               2         AD vind (tangential) at blade 1, node 19, m/s
         71    0.000000000000E+000                                                     T               2         AD vind (axial) at blade 2, node 1, m/s
         72    0.000000000000E+000                                                     T               2         AD vind (tangential) at blade 2, node 1, m/s
         73    0.000000000000E+000                                                     T               2         AD vind (axial) at blade 2, node 2, m/s
         74    0.000000000000E+000                                                     T               2         AD vind (tangential) at blade 2, node 2, m/s
         75    0.000000000000E+000                                                     T               2         AD vind (axial) at blade 2, node 3, m/s
         76    0.000000000000E+000                                                     T               2         AD vind (tangential) at blade 2, node 3, m/s
         77    0.000000000000E+000                                                     T               2         AD vind (axial) at blade 2, node 4, m/s
         78    0.000000000000E+000                                                     T               2         AD vind (tangential) at blade 2, node 4, m/s
         79    0.000000000000E+000                                                     T               2         AD vind (axial) at blade 2, node 5, m/s
         80    0.000000000000E+000                                                     T               2         AD vind (tangential) at blade 2, node 5, m/s
         81    0.000000000000E+000                                                     T               2         AD vind (axial) at blade 2, node 6, m/s
         82    0.000000000000E+000                                                     T               2         AD vind (tangential) at blade 2, node 6, m/s
         83    0.000000000000E+000                                                     T               2         AD vind (axial) at blade 2, node 7, m/s
         84    0.000000000000E+000                                                     T               2         AD vind (tangential) at blade 2, node 7, m/s
         85    0.000000000000E+000                                                     T               2         AD vind (axial) at blade 2, node 8, m/s
         86    0.000000000000E+000                                                     T               2         AD vind (tangential) at blade 2, node 8, m/s
         87    0.000000000000E+000                                                     T               2         AD vind (axial) at blade 2, node 9, m/s
         88    0.000000000000E+000                                                     T               2         AD vind (tangential) at blade 2, node 9, m/s
         89    0.000000000000E+000                                                     T               2         AD vind (axial) at blade 2, node 10, m/s
         90    0.000000000000E+000                                                     T               2         AD vind (tangential) at blade 2, node 10, m/s
         91    0.000000000000E+000                                                     T               2         AD vind (axial) at blade 2, node 11, m/s
         92    0.000000000000E+000                                                     T               2         AD vind (tangential) at blade 2, node 11, m/s
         93    0.000000000000E+000                                                     T               2         AD vind (axial) at blade 2, node 12, m/s
         94    0.000000000000E+000                                                     T               2         AD vind (tangential) at blade 2, node 12, m/s
         95    0.000000000000E+000                                                     T               2         AD vind (axial) at blade 2, node 13, m/s
         96    0.000000000000E+000                                                     T               2         AD vind (tangential) at blade 2, node 13, m/s
         97    0.000000000000E+000                                                     T               2         AD vind (axial) at blade 2, node 14, m/s
         98    0.000000000000E+000                                                     T               2         AD vind (tangential) at blade 2, node 14, m/s
         99    0.000000000000E+000                                                     T               2         AD vind (axial) at blade 2, node 15, m/s
        100    0.000000000000E+000                                                     T               2         AD vind (tangential) at blade 2, node 15, m/s
        101    0.000000000000E+000                                                     T               2         AD vind (axial) at blade 2, node 16, m/s
        102    0.000000000000E+000                                                     T               2         AD vind (tangential) at blade 2, node 16, m/s
        103    0.000000000000E+000                                                     T               2         AD vind (axial) at blade 2, node 17, m/s
        104    0.000000000000E+000                                                     T               2         AD vind (tangential) at blade 2, node 17, m/s
        105    0.000000000000E+000                                                     T               2         AD vind (axial) at blade 2, node 18, m/s
        106    0.000000000000E+000                                                     T               2         AD vind (tangential) at blade 2, node 18, m/s
        107    0.000000000000E+000                                                     T               2         AD vind (axial) at blade 2, node 19, m/s
        108    0.000000000000E+000                                                     T               2         AD vind (tangential) at blade 2, node 19, m/s
        109    0.000000000000E+000                                                     T               2         AD vind (axial) at blade 3, node 1, m/s
        110    0.000000000000E+000                                                     T               2         AD vind (tangential) at blade 3, node 1, m/s
        111    0.000000000000E+000                                                     T               2         AD vind (axial) at blade 3, node 2, m/s
        112    0.000000000000E+000                                                     T               2         AD vind (tangential) at blade 3, node 2, m/s
        113    0.000000000000E+000                                                     T               2         AD vind (axial) at blade 3, node 3, m/s
        114    0.000000000000E+000                                                     T               2         AD vind (tangential) at blade 3, node 3, m/s
        115    0.000000000000E+000                                                     T               2         AD vind (axial) at blade 3, node 4, m/s
        116    0.000000000000E+000                                                     T               2         AD vind (tangential) at blade 3, node 4, m/s
        117    0.000000000000E+000                                                     T               2         AD vind (axial) at blade 3, node 5, m/s
        118    0.000000000000E+000                                                     T               2         AD vind (tangential) at blade 3, node 5, m/s
        119    0.000000000000E+000                                                     T               2         AD vind (axial) at blade 3, node 6, m/s
        120    0.000000000000E+000                                                     T               2         AD vind (tangential) at blade 3, node 6, m/s
        121    0.000000000000E+000                                                     T               2         AD vind (axial) at blade 3, node 7, m/s
        122    0.000000000000E+000                                                     T               2         AD vind (tangential) at blade 3, node 7, m/s
        123    0.000000000000E+000                                                     T               2         AD vind (axial) at blade 3, node 8, m/s
        124    0.000000000000E+000                                                     T               2         AD vind (tangential) at blade 3, node 8, m/s
        125    0.000000000000E+000                                                     T               2         AD vind (axial) at blade 3, node 9, m/s
        126    0.000000000000E+000                                                     T               2         AD vind (tangential) at blade 3, node 9, m/s
        127    0.000000000000E+000                                                     T               2         AD vind (axial) at blade 3, node 10, m/s
        128    0.000000000000E+000                                                     T               2         AD vind (tangential) at blade 3, node 10, m/s
        129    0.000000000000E+000                                                     T               2         AD vind (axial) at blade 3, node 11, m/s
        130    0.000000000000E+000                                                     T               2         AD vind (tangential) at blade 3, node 11, m/s
        131    0.000000000000E+000                                                     T               2         AD vind (axial) at blade 3, node 12, m/s
        132    0.000000000000E+000                                                     T               2         AD vind (tangential) at blade 3, node 12, m/s
        133    0.000000000000E+000                                                     T               2         AD vind (axial) at blade 3, node 13, m/s
        134    0.000000000000E+000                                                     T               2         AD vind (tangential) at blade 3, node 13, m/s
        135    0.000000000000E+000                                                     T               2         AD vind (axial) at blade 3, node 14, m/s
        136    0.000000000000E+000                                                     T               2         AD vind (tangential) at blade 3, node 14, m/s
        137    0.000000000000E+000                                                     T               2         AD vind (axial) at blade 3, node 15, m/s
        138    0.000000000000E+000                                                     T               2         AD vind (tangential) at blade 3, node 15, m/s
        139    0.000000000000E+000                                                     T               2         AD vind (axial) at blade 3, node 16, m/s
        140    0.000000000000E+000                                                     T               2         AD vind (tangential) at blade 3, node 16, m/s
        141    0.000000000000E+000                                                     T               2         AD vind (axial) at blade 3, node 17, m/s
        142    0.000000000000E+000                                                     T               2         AD vind (tangential) at blade 3, node 17, m/s
        143    0.000000000000E+000                                                     T               2         AD vind (axial) at blade 3, node 18, m/s
        144    0.000000000000E+000                                                     T               2         AD vind (tangential) at blade 3, node 18, m/s
        145    0.000000000000E+000                                                     T               2         AD vind (axial) at blade 3, node 19, m/s
        146    0.000000000000E+000                                                     T               2         AD vind (tangential) at blade 3, node 19, m/s
        147    0.000000000000E+000                                                     T               2         AD First time derivative of vind (axial) at blade 1, node 1, m/s/s
        148    0.000000000000E+000                                                     T               2         AD First time derivative of vind (tangential) at blade 1, node 1, m/s/s
        149    0.000000000000E+000                                                     T               2         AD First time derivative of vind (axial) at blade 1, node 2, m/s/s
        150    0.000000000000E+000                                                     T               2         AD First time derivative of vind (tangential) at blade 1, node 2, m/s/s
        151    0.000000000000E+000                                                     T               2         AD First time derivative of vind (axial) at blade 1, node 3, m/s/s
        152    0.000000000000E+000                                                     T               2         AD First time derivative of vind (tangential) at blade 1, node 3, m/s/s
        153    0.000000000000E+000                                                     T               2         AD First time derivative of vind (axial) at blade 1, node 4, m/s/s
        154    0.000000000000E+000                                                     T               2         AD First time derivative of vind (tangential) at blade 1, node 4, m/s/s
        155    0.000000000000E+000                                                     T               2         AD First time derivative of vind (axial) at blade 1, node 5, m/s/s
        156    0.000000000000E+000                                                     T               2         AD First time derivative of vind (tangential) at blade 1, node 5, m/s/s
        157    0.000000000000E+000                                                     T               2         AD First time derivative of vind (axial) at blade 1, node 6, m/s/s
        158    0.000000000000E+000                                                     T               2         AD First time derivative of vind (tangential) at blade 1, node 6, m/s/s
        159    0.000000000000E+000                                                     T               2         AD First time derivative of vind (axial) at blade 1, node 7, m/s/s
        160    0.000000000000E+000                                                     T               2         AD First time derivative of vind (tangential) at blade 1, node 7, m/s/s
        161    0.000000000000E+000                                                     T               2         AD First time derivative of vind (axial) at blade 1, node 8, m/s/s
        162    0.000000000000E+000                                                     T               2         AD First time derivative of vind (tangential) at blade 1, node 8, m/s/s
        163    0.000000000000E+000                                                     T               2         AD First time derivative of vind (axial) at blade 1, node 9, m/s/s
        164    0.000000000000E+000                                                     T               2         AD First time derivative of vind (tangential) at blade 1, node 9, m/s/s
        165    0.000000000000E+000                                                     T               2         AD First time derivative of vind (axial) at blade 1, node 10, m/s/s
        166    0.000000000000E+000                                                     T               2         AD First time derivative of vind (tangential) at blade 1, node 10, m/s/s
        167    0.000000000000E+000                                                     T               2         AD First time derivative of vind (axial) at blade 1, node 11, m/s/s
        168    0.000000000000E+000                                                     T               2         AD First time derivative of vind (tangential) at blade 1, node 11, m/s/s
        169    0.000000000000E+000                                                     T               2         AD First time derivative of vind (axial) at blade 1, node 12, m/s/s
        170    0.000000000000E+000                                                     T               2         AD First time derivative of vind (tangential) at blade 1, node 12, m/s/s