
Linearized model: Predictions were generated on 26-Jun-2025 at 16:47:40 using OpenFAST, compiled on Jun 13 2025 at 13:19:07 as a 64-bit application using single precision at commit v4.0.5
 linked with  NWTC Subroutine Library; ElastoDyn; BeamDyn; ServoDyn

Description from the FAST input file: FAST Certification Test #26: NREL 5.0 MW Baseline Wind Turbine (Onshore)

Simulation information:
   Simulation time:                     1.0005 s
   Rotor Speed:                         1.2670 rad/s
   Azimuth:                             1.2678 rad
   Wind Speed:                          0.0000 m/s
   Number of continuous states:       194
   Number of discrete states:           0
   Number of constraint states:         0
   Number of inputs:                    6
   Number of outputs:                  60
   Jacobians included in this file?    No

Order of continuous states:
   Row/Column Operating Point                                                   Rotating Frame? Derivative Order Description
   ---------- ---------------                                                   --------------- ---------------- -----------
          1   -1.854041032493E-002                                                     F               2         ED 1st tower fore-aft bending mode DOF (internal DOF index = DOF_TFA1), m
          2   -3.244498977438E-003                                                     F               2         ED 1st tower side-to-side bending mode DOF (internal DOF index = DOF_TSS1), m
          3   -3.132913479931E-005                                                     F               2         ED 2nd tower fore-aft bending mode DOF (internal DOF index = DOF_TFA2), m
          4    3.568920192265E-006                                                     F               2         ED 2nd tower side-to-side bending mode DOF (internal DOF index = DOF_TSS2), m
          5    2.169620165660E-005                                                     F               2         ED Nacelle yaw DOF (internal DOF index = DOF_Yaw), rad
          6    5.980173587799E+000                                                     F               2         ED Variable speed generator DOF (internal DOF index = DOF_GeAz), rad
          7   -1.705996282908E-006                                                     F               2         ED Drivetrain rotational-flexibility DOF (internal DOF index = DOF_DrTr), rad
          8   -2.347021922469E-002                                                     F               2         ED First time derivative of 1st tower fore-aft bending mode DOF (internal DOF index = DOF_TFA1), m/s
          9    4.889177624136E-003                                                     F               2         ED First time derivative of 1st tower side-to-side bending mode DOF (internal DOF index = DOF_TSS1), m/s
         10    6.972805131227E-004                                                     F               2         ED First time derivative of 2nd tower fore-aft bending mode DOF (internal DOF index = DOF_TFA2), m/s
         11    2.097114156641E-005                                                     F               2         ED First time derivative of 2nd tower side-to-side bending mode DOF (internal DOF index = DOF_TSS2), m/s
         12   -9.079442679649E-005                                                     F               2         ED First time derivative of Nacelle yaw DOF (internal DOF index = DOF_Yaw), rad/s
         13    1.267021775246E+000                                                     F               2         ED First time derivative of Variable speed generator DOF (internal DOF index = DOF_GeAz), rad/s
         14    1.103206795960E-005                                                     F               2         ED First time derivative of Drivetrain rotational-flexibility DOF (internal DOF index = DOF_DrTr), rad/s
         15   -2.846720814705E-001                                                     T               2         BD_1 finite element node 2 (number of elements = 1; element order = 5) translational displacement in X, m
         16   -8.317974090576E+000                                                     T               2         BD_1 finite element node 2 (number of elements = 1; element order = 5) translational displacement in Y, m
         17   -6.117054939270E+000                                                     T               2         BD_1 finite element node 2 (number of elements = 1; element order = 5) translational displacement in Z, m
         18    1.312227368355E+000                                                     T               2         BD_1 finite element node 2 (number of elements = 1; element order = 5) rotational displacement in X, rad
         19    2.943127183244E-004                                                     T               2         BD_1 finite element node 2 (number of elements = 1; element order = 5) rotational displacement in Y, rad
         20   -5.651242285967E-002                                                     T               2         BD_1 finite element node 2 (number of elements = 1; element order = 5) rotational displacement in Z, rad
         21   -7.035358548164E-001                                                     T               2         BD_1 finite element node 3 (number of elements = 1; element order = 5) translational displacement in X, m
         22   -2.240597343445E+001                                                     T               2         BD_1 finite element node 3 (number of elements = 1; element order = 5) translational displacement in Y, m
         23   -1.649964714050E+001                                                     T               2         BD_1 finite element node 3 (number of elements = 1; element order = 5) translational displacement in Z, m
         24    1.316744685173E+000                                                     T               2         BD_1 finite element node 3 (number of elements = 1; element order = 5) rotational displacement in X, rad
         25    3.461670130491E-003                                                     T               2         BD_1 finite element node 3 (number of elements = 1; element order = 5) rotational displacement in Y, rad
         26   -5.425400659442E-002                                                     T               2         BD_1 finite element node 3 (number of elements = 1; element order = 5) rotational displacement in Z, rad
         27   -1.115094423294E+000                                                     T               2         BD_1 finite element node 4 (number of elements = 1; element order = 5) translational displacement in X, m
         28   -3.918036270142E+001                                                     T               2         BD_1 finite element node 4 (number of elements = 1; element order = 5) translational displacement in Y, m
         29   -2.891161727905E+001                                                     T               2         BD_1 finite element node 4 (number of elements = 1; element order = 5) translational displacement in Z, m
         30    1.320588827133E+000                                                     T               2         BD_1 finite element node 4 (number of elements = 1; element order = 5) rotational displacement in X, rad
         31    9.077605791390E-003                                                     T               2         BD_1 finite element node 4 (number of elements = 1; element order = 5) rotational displacement in Y, rad
         32   -5.031052976847E-002                                                     T               2         BD_1 finite element node 4 (number of elements = 1; element order = 5) rotational displacement in Z, rad
         33   -1.377102732658E+000                                                     T               2         BD_1 finite element node 5 (number of elements = 1; element order = 5) translational displacement in X, m
         34   -5.330175399780E+001                                                     T               2         BD_1 finite element node 5 (number of elements = 1; element order = 5) translational displacement in Y, m
         35   -3.938334655762E+001                                                     T               2         BD_1 finite element node 5 (number of elements = 1; element order = 5) translational displacement in Z, m
         36    1.322041153908E+000                                                     T               2         BD_1 finite element node 5 (number of elements = 1; element order = 5) rotational displacement in X, rad
         37    1.345152221620E-002                                                     T               2         BD_1 finite element node 5 (number of elements = 1; element order = 5) rotational displacement in Y, rad
         38   -4.715256020427E-002                                                     T               2         BD_1 finite element node 5 (number of elements = 1; element order = 5) rotational displacement in Z, rad
         39   -1.483662128448E+000                                                     T               2         BD_1 finite element node 6 (number of elements = 1; element order = 5) translational displacement in X, m
         40   -6.021732330322E+001                                                     T               2         BD_1 finite element node 6 (number of elements = 1; element order = 5) translational displacement in Y, m
         41   -4.451636886597E+001                                                     T               2         BD_1 finite element node 6 (number of elements = 1; element order = 5) translational displacement in Z, m
         42    1.322296142578E+000                                                     T               2         BD_1 finite element node 6 (number of elements = 1; element order = 5) rotational displacement in X, rad
         43    1.439790800214E-002                                                     T               2         BD_1 finite element node 6 (number of elements = 1; element order = 5) rotational displacement in Y, rad
         44   -4.643263295293E-002                                                     T               2         BD_1 finite element node 6 (number of elements = 1; element order = 5) rotational displacement in Z, rad
         45   -4.786970615387E-001                                                     T               2         BD_1 First time derivative of finite element node 2 (number of elements = 1; element order = 5) translational displacement in X, m/s
         46   -3.294142246246E+000                                                     T               2         BD_1 First time derivative of finite element node 2 (number of elements = 1; element order = 5) translational displacement in Y, m/s
         47   -1.053244495392E+001                                                     T               2         BD_1 First time derivative of finite element node 2 (number of elements = 1; element order = 5) translational displacement in Z, m/s
         48    1.265326023102E+000                                                     T               2         BD_1 First time derivative of finite element node 2 (number of elements = 1; element order = 5) rotational displacement in X, rad/s
         49    2.047955349553E-004                                                     T               2         BD_1 First time derivative of finite element node 2 (number of elements = 1; element order = 5) rotational displacement in Y, rad/s
         50   -5.493244528770E-002                                                     T               2         BD_1 First time derivative of finite element node 2 (number of elements = 1; element order = 5) rotational displacement in Z, rad/s
         51   -1.251941919327E+000                                                     T               2         BD_1 First time derivative of finite element node 3 (number of elements = 1; element order = 5) translational displacement in X, m/s
         52   -8.798280715942E+000                                                     T               2         BD_1 First time derivative of finite element node 3 (number of elements = 1; element order = 5) translational displacement in Y, m/s
         53   -2.834075737000E+001                                                     T               2         BD_1 First time derivative of finite element node 3 (number of elements = 1; element order = 5) translational displacement in Z, m/s
         54    1.262996912003E+000                                                     T               2         BD_1 First time derivative of finite element node 3 (number of elements = 1; element order = 5) rotational displacement in X, rad/s
         55    3.793647629209E-004                                                     T               2         BD_1 First time derivative of finite element node 3 (number of elements = 1; element order = 5) rotational displacement in Y, rad/s
         56   -5.471522733569E-002                                                     T               2         BD_1 First time derivative of finite element node 3 (number of elements = 1; element order = 5) rotational displacement in Z, rad/s
         57   -2.144690752029E+000                                                     T               2         BD_1 First time derivative of finite element node 4 (number of elements = 1; element order = 5) translational displacement in X, m/s
         58   -1.524852657318E+001                                                     T               2         BD_1 First time derivative of finite element node 4 (number of elements = 1; element order = 5) translational displacement in Y, m/s
         59   -4.950197982788E+001                                                     T               2         BD_1 First time derivative of finite element node 4 (number of elements = 1; element order = 5) translational displacement in Z, m/s
         60    1.260837078094E+000                                                     T               2         BD_1 First time derivative of finite element node 4 (number of elements = 1; element order = 5) rotational displacement in X, rad/s
         61    1.539746997878E-003                                                     T               2         BD_1 First time derivative of finite element node 4 (number of elements = 1; element order = 5) rotational displacement in Y, rad/s
         62   -5.189117789268E-002                                                     T               2         BD_1 First time derivative of finite element node 4 (number of elements = 1; element order = 5) rotational displacement in Z, rad/s
         63   -2.841251373291E+000                                                     T               2         BD_1 First time derivative of finite element node 5 (number of elements = 1; element order = 5) translational displacement in X, m/s
         64   -2.063313484192E+001                                                     T               2         BD_1 First time derivative of finite element node 5 (number of elements = 1; element order = 5) translational displacement in Y, m/s
         65   -6.729605102539E+001                                                     T               2         BD_1 First time derivative of finite element node 5 (number of elements = 1; element order = 5) translational displacement in Z, m/s
         66    1.260109901428E+000                                                     T               2         BD_1 First time derivative of finite element node 5 (number of elements = 1; element order = 5) rotational displacement in X, rad/s
         67    2.901671687141E-003                                                     T               2         BD_1 First time derivative of finite element node 5 (number of elements = 1; element order = 5) rotational displacement in Y, rad/s
         68   -4.862508177757E-002                                                     T               2         BD_1 First time derivative of finite element node 5 (number of elements = 1; element order = 5) rotational displacement in Z, rad/s
         69   -3.169076442719E+000                                                     T               2         BD_1 First time derivative of finite element node 6 (number of elements = 1; element order = 5) translational displacement in X, m/s
         70   -2.326314544678E+001                                                     T               2         BD_1 First time derivative of finite element node 6 (number of elements = 1; element order = 5) translational displacement in Y, m/s
         71   -7.600848388672E+001                                                     T               2         BD_1 First time derivative of finite element node 6 (number of elements = 1; element order = 5) translational displacement in Z, m/s
         72    1.259947061539E+000                                                     T               2         BD_1 First time derivative of finite element node 6 (number of elements = 1; element order = 5) rotational displacement in X, rad/s
         73    2.957021817565E-003                                                     T               2         BD_1 First time derivative of finite element node 6 (number of elements = 1; element order = 5) rotational displacement in Y, rad/s
         74   -4.868325963616E-002                                                     T               2         BD_1 First time derivative of finite element node 6 (number of elements = 1; element order = 5) rotational displacement in Z, rad/s
         75   -2.805169820786E-001                                                     T               2         BD_2 finite element node 2 (number of elements = 1; element order = 5) translational displacement in X, m
         76   -8.324216842651E+000                                                     T               2         BD_2 finite element node 2 (number of elements = 1; element order = 5) translational displacement in Y, m
         77   -6.108019828796E+000                                                     T               2         BD_2 finite element node 2 (number of elements = 1; element order = 5) translational displacement in Z, m
         78    1.310429692268E+000                                                     T               2         BD_2 finite element node 2 (number of elements = 1; element order = 5) rotational displacement in X, rad
         79    9.437571279705E-004                                                     T               2         BD_2 finite element node 2 (number of elements = 1; element order = 5) rotational displacement in Y, rad
         80   -5.665807798505E-002                                                     T               2         BD_2 finite element node 2 (number of elements = 1; element order = 5) rotational displacement in Z, rad
         81   -6.968362331390E-001                                                     T               2         BD_2 finite element node 3 (number of elements = 1; element order = 5) translational displacement in X, m
         82   -2.239424514771E+001                                                     T               2         BD_2 finite element node 3 (number of elements = 1; element order = 5) translational displacement in Y, m
         83   -1.643104362488E+001                                                     T               2         BD_2 finite element node 3 (number of elements = 1; element order = 5) translational displacement in Z, m
         84    1.309931039810E+000                                                     T               2         BD_2 finite element node 3 (number of elements = 1; element order = 5) rotational displacement in X, rad
         85    3.419329179451E-003                                                     T               2         BD_2 finite element node 3 (number of elements = 1; element order = 5) rotational displacement in Y, rad
         86   -5.476000159979E-002                                                     T               2         BD_2 finite element node 3 (number of elements = 1; element order = 5) rotational displacement in Z, rad
         87   -1.121574044228E+000                                                     T               2         BD_2 finite element node 4 (number of elements = 1; element order = 5) translational displacement in X, m
         88   -3.912455749512E+001                                                     T               2         BD_2 finite element node 4 (number of elements = 1; element order = 5) translational displacement in Y, m
         89   -2.869942283630E+001                                                     T               2         BD_2 finite element node 4 (number of elements = 1; element order = 5) translational displacement in Z, m
         90    1.309867858887E+000                                                     T               2         BD_2 finite element node 4 (number of elements = 1; element order = 5) rotational displacement in X, rad
         91    7.814208045602E-003                                                     T               2         BD_2 finite element node 4 (number of elements = 1; element order = 5) rotational displacement in Y, rad
         92   -5.141257122159E-002                                                     T               2         BD_2 finite element node 4 (number of elements = 1; element order = 5) rotational displacement in Z, rad
         93   -1.409147858620E+000                                                     T               2         BD_2 finite element node 5 (number of elements = 1; element order = 5) translational displacement in X, m
         94   -5.319940185547E+001                                                     T               2         BD_2 finite element node 5 (number of elements = 1; element order = 5) translational displacement in Y, m
         95   -3.901999282837E+001                                                     T               2         BD_2 finite element node 5 (number of elements = 1; element order = 5) translational displacement in Z, m
         96    1.309933662415E+000                                                     T               2         BD_2 finite element node 5 (number of elements = 1; element order = 5) rotational displacement in X, rad
         97    1.148702576756E-002                                                     T               2         BD_2 finite element node 5 (number of elements = 1; element order = 5) rotational displacement in Y, rad
         98   -4.869486019015E-002                                                     T               2         BD_2 finite element node 5 (number of elements = 1; element order = 5) rotational displacement in Z, rad
         99   -1.531150698662E+000                                                     T               2         BD_2 finite element node 6 (number of elements = 1; element order = 5) translational displacement in X, m
        100   -6.009040832520E+001                                                     T               2         BD_2 finite element node 6 (number of elements = 1; element order = 5) translational displacement in Y, m
        101   -4.407388687134E+001                                                     T               2         BD_2 finite element node 6 (number of elements = 1; element order = 5) translational displacement in Z, m
        102    1.309898018837E+000                                                     T               2         BD_2 finite element node 6 (number of elements = 1; element order = 5) rotational displacement in X, rad
        103    1.231258641928E-002                                                     T               2         BD_2 finite element node 6 (number of elements = 1; element order = 5) rotational displacement in Y, rad
        104   -4.806946963072E-002                                                     T               2         BD_2 finite element node 6 (number of elements = 1; element order = 5) rotational displacement in Z, rad
        105   -4.843535423279E-001                                                     T               2         BD_2 First time derivative of finite element node 2 (number of elements = 1; element order = 5) translational displacement in X, m/s
        106   -3.295289278030E+000                                                     T               2         BD_2 First time derivative of finite element node 2 (number of elements = 1; element order = 5) translational displacement in Y, m/s
        107   -1.052200889587E+001                                                     T               2         BD_2 First time derivative of finite element node 2 (number of elements = 1; element order = 5) translational displacement in Z, m/s
        108    1.264906883240E+000                                                     T               2         BD_2 First time derivative of finite element node 2 (number of elements = 1; element order = 5) rotational displacement in X, rad/s
        109    2.493637439329E-004                                                     T               2         BD_2 First time derivative of finite element node 2 (number of elements = 1; element order = 5) rotational displacement in Y, rad/s
        110   -5.562774091959E-002                                                     T               2         BD_2 First time derivative of finite element node 2 (number of elements = 1; element order = 5) rotational displacement in Z, rad/s
        111   -1.265920639038E+000                                                     T               2         BD_2 First time derivative of finite element node 3 (number of elements = 1; element order = 5) translational displacement in X, m/s
        112   -8.870395660400E+000                                                     T               2         BD_2 First time derivative of finite element node 3 (number of elements = 1; element order = 5) translational displacement in Y, m/s
        113   -2.829674720764E+001                                                     T               2         BD_2 First time derivative of finite element node 3 (number of elements = 1; element order = 5) translational displacement in Z, m/s
        114    1.262050509453E+000                                                     T               2         BD_2 First time derivative of finite element node 3 (number of elements = 1; element order = 5) rotational displacement in X, rad/s
        115    1.828067070164E-005                                                     T               2         BD_2 First time derivative of finite element node 3 (number of elements = 1; element order = 5) rotational displacement in Y, rad/s
        116   -5.576780065894E-002                                                     T               2         BD_2 First time derivative of finite element node 3 (number of elements = 1; element order = 5) rotational displacement in Z, rad/s
        117   -2.219243288040E+000                                                     T               2         BD_2 First time derivative of finite element node 4 (number of elements = 1; element order = 5) translational displacement in X, m/s
        118   -1.549174308777E+001                                                     T               2         BD_2 First time derivative of finite element node 4 (number of elements = 1; element order = 5) translational displacement in Y, m/s
        119   -4.938125228882E+001                                                     T               2         BD_2 First time derivative of finite element node 4 (number of elements = 1; element order = 5) translational displacement in Z, m/s
        120    1.259010910988E+000                                                     T               2         BD_2 First time derivative of finite element node 4 (number of elements = 1; element order = 5) rotational displacement in X, rad/s
        121   -1.662166207097E-003                                                     T               2         BD_2 First time derivative of finite element node 4 (number of elements = 1; element order = 5) rotational displacement in Y, rad/s
        122   -5.862229689956E-002                                                     T               2         BD_2 First time derivative of finite element node 4 (number of elements = 1; element order = 5) rotational displacement in Z, rad/s
        123   -3.103283643723E+000                                                     T               2         BD_2 First time derivative of finite element node 5 (number of elements = 1; element order = 5) translational displacement in X, m/s
        124   -2.104996109009E+001                                                     T               2         BD_2 First time derivative of finite element node 5 (number of elements = 1; element order = 5) translational displacement in Y, m/s
        125   -6.708267211914E+001                                                     T               2         BD_2 First time derivative of finite element node 5 (number of elements = 1; element order = 5) translational displacement in Z, m/s
        126    1.256891608238E+000                                                     T               2         BD_2 First time derivative of finite element node 5 (number of elements = 1; element order = 5) rotational displacement in X, rad/s