
Linearized model: Predictions were generated on 26-Jun-2025 at 16:47:40 using OpenFAST, compiled on Jun 13 2025 at 13:19:07 as a 64-bit application using single precision at commit v4.0.5
 linked with  NWTC Subroutine Library; ElastoDyn; BeamDyn; ServoDyn

Description from the FAST input file: FAST Certification Test #26: NREL 5.0 MW Baseline Wind Turbine (Onshore)

Simulation information:
   Simulation time:                     1.0005 s
   Rotor Speed:                         1.2670 rad/s
   Azimuth:                             1.2678 rad
   Wind Speed:                          0.0000 m/s
   Number of continuous states:        60
   Number of discrete states:           0
   Number of constraint states:         0
   Number of inputs:                    0
   Number of outputs:                  12
   Jacobians included in this file?    No

Order of continuous states:
   Row/Column Operating Point                                                   Rotating Frame? Derivative Order Description
   ---------- ---------------                                                   --------------- ---------------- -----------
          1   -2.805169820786E-001                                                     T               2         finite element node 2 (number of elements = 1; element order = 5) translational displacement in X, m
          2   -8.324216842651E+000                                                     T               2         finite element node 2 (number of elements = 1; element order = 5) translational displacement in Y, m
          3   -6.108019828796E+000                                                     T               2         finite element node 2 (number of elements = 1; element order = 5) translational displacement in Z, m
          4    1.310429692268E+000                                                     T               2         finite element node 2 (number of elements = 1; element order = 5) rotational displacement in X, rad
          5    9.437571279705E-004                                                     T               2         finite element node 2 (number of elements = 1; element order = 5) rotational displacement in Y, rad
          6   -5.665807798505E-002                                                     T               2         finite element node 2 (number of elements = 1; element order = 5) rotational displacement in Z, rad
          7   -6.968362331390E-001                                                     T               2         finite element node 3 (number of elements = 1; element order = 5) translational displacement in X, m
          8   -2.239424514771E+001                                                     T               2         finite element node 3 (number of elements = 1; element order = 5) translational displacement in Y, m
          9   -1.643104362488E+001                                                     T               2         finite element node 3 (number of elements = 1; element order = 5) translational displacement in Z, m
         10    1.309931039810E+000                                                     T               2         finite element node 3 (number of elements = 1; element order = 5) rotational displacement in X, rad
         11    3.419329179451E-003                                                     T               2         finite element node 3 (number of elements = 1; element order = 5) rotational displacement in Y, rad
         12   -5.476000159979E-002                                                     T               2         finite element node 3 (number of elements = 1; element order = 5) rotational displacement in Z, rad
         13   -1.121574044228E+000                                                     T               2         finite element node 4 (number of elements = 1; element order = 5) translational displacement in X, m
         14   -3.912455749512E+001                                                     T               2         finite element node 4 (number of elements = 1; element order = 5) translational displacement in Y, m
         15   -2.869942283630E+001                                                     T               2         finite element node 4 (number of elements = 1; element order = 5) translational displacement in Z, m
         16    1.309867858887E+000                                                     T               2         finite element node 4 (number of elements = 1; element order = 5) rotational displacement in X, rad
         17    7.814208045602E-003                                                     T               2         finite element node 4 (number of elements = 1; element order = 5) rotational displacement in Y, rad
         18   -5.141257122159E-002                                                     T               2         finite element node 4 (number of elements = 1; element order = 5) rotational displacement in Z, rad
         19   -1.409147858620E+000                                                     T               2         finite element node 5 (number of elements = 1; element order = 5) translational displacement in X, m
         20   -5.319940185547E+001                                                     T               2         finite element node 5 (number of elements = 1; element order = 5) translational displacement in Y, m
         21   -3.901999282837E+001                                                     T               2         finite element node 5 (number of elements = 1; element order = 5) translational displacement in Z, m
         22    1.309933662415E+000                                                     T               2         finite element node 5 (number of elements = 1; element order = 5) rotational displacement in X, rad
         23    1.148702576756E-002                                                     T               2         finite element node 5 (number of elements = 1; element order = 5) rotational displacement in Y, rad
         24   -4.869486019015E-002                                                     T               2         finite element node 5 (number of elements = 1; element order = 5) rotational displacement in Z, rad
         25   -1.531150698662E+000                                                     T               2         finite element node 6 (number of elements = 1; element order = 5) translational displacement in X, m
         26   -6.009040832520E+001                                                     T               2         finite element node 6 (number of elements = 1; element order = 5) translational displacement in Y, m
         27   -4.407388687134E+001                                                     T               2         finite element node 6 (number of elements = 1; element order = 5) translational displacement in Z, m
         28    1.309898018837E+000                                                     T               2         finite element node 6 (number of elements = 1; element order = 5) rotational displacement in X, rad
         29    1.231258641928E-002                                                     T               2         finite element node 6 (number of elements = 1; element order = 5) rotational displacement in Y, rad
         30   -4.806946963072E-002                                                     T               2         finite element node 6 (number of elements = 1; element order = 5) rotational displacement in Z, rad
         31   -4.843535423279E-001                                                     T               2         First time derivative of finite element node 2 (number of elements = 1; element order = 5) translational displacement in X, m/s
         32   -3.295289278030E+000                                                     T               2         First time derivative of finite element node 2 (number of elements = 1; element order = 5) translational displacement in Y, m/s
         33   -1.052200889587E+001                                                     T               2         First time derivative of finite element node 2 (number of elements = 1; element order = 5) translational displacement in Z, m/s
         34    1.264906883240E+000                                                     T               2         First time derivative of finite element node 2 (number of elements = 1; element order = 5) rotational displacement in X, rad/s
         35    2.493637439329E-004                                                     T               2         First time derivative of finite element node 2 (number of elements = 1; element order = 5) rotational displacement in Y, rad/s
         36   -5.562774091959E-002                                                     T               2         First time derivative of finite element node 2 (number of elements = 1; element order = 5) rotational displacement in Z, rad/s
         37   -1.265920639038E+000                                                     T               2         First time derivative of finite element node 3 (number of elements = 1; element order = 5) translational displacement in X, m/s
         38   -8.870395660400E+000                                                     T               2         First time derivative of finite element node 3 (number of elements = 1; element order = 5) translational displacement in Y, m/s
         39   -2.829674720764E+001                                                     T               2         First time derivative of finite element node 3 (number of elements = 1; element order = 5) translational displacement in Z, m/s
         40    1.262050509453E+000                                                     T               2         First time derivative of finite element node 3 (number of elements = 1; element order = 5) rotational displacement in X, rad/s
         41    1.828067070164E-005                                                     T               2         First time derivative of finite element node 3 (number of elements = 1; element order = 5) rotational displacement in Y, rad/s
         42   -5.576780065894E-002                                                     T               2         First time derivative of finite element node 3 (number of elements = 1; element order = 5) rotational displacement in Z, rad/s
         43   -2.219243288040E+000                                                     T               2         First time derivative of finite element node 4 (number of elements = 1; element order = 5) translational displacement in X, m/s
         44   -1.549174308777E+001                                                     T               2         First time derivative of finite element node 4 (number of elements = 1; element order = 5) translational displacement in Y, m/s
         45   -4.938125228882E+001                                                     T               2         First time derivative of finite element node 4 (number of elements = 1; element order = 5) translational displacement in Z, m/s
         46    1.259010910988E+000                                                     T               2         First time derivative of finite element node 4 (number of elements = 1; element order = 5) rotational displacement in X, rad/s
         47   -1.662166207097E-003                                                     T               2         First time derivative of finite element node 4 (number of elements = 1; element order = 5) rotational displacement in Y, rad/s
         48   -5.862229689956E-002                                                     T               2         First time derivative of finite element node 4 (number of elements = 1; element order = 5) rotational displacement in Z, rad/s
         49   -3.103283643723E+000                                                     T               2         First time derivative of finite element node 5 (number of elements = 1; element order = 5) translational displacement in X, m/s
         50   -2.104996109009E+001                                                     T               2         First time derivative of finite element node 5 (number of elements = 1; element order = 5) translational displacement in Y, m/s
         51   -6.708267211914E+001                                                     T               2         First time derivative of finite element node 5 (number of elements = 1; element order = 5) translational displacement in Z, m/s
         52    1.256891608238E+000                                                     T               2         First time derivative of finite element node 5 (number of elements = 1; element order = 5) rotational displacement in X, rad/s
         53   -4.706008359790E-003                                                     T               2         First time derivative of finite element node 5 (number of elements = 1; element order = 5) rotational displacement in Y, rad/s
         54   -6.569197028875E-002                                                     T               2         First time derivative of finite element node 5 (number of elements = 1; element order = 5) rotational displacement in Z, rad/s
         55   -3.588558673859E+000                                                     T               2         First time derivative of finite element node 6 (number of elements = 1; element order = 5) translational displacement in X, m/s
         56   -2.376804161072E+001                                                     T               2         First time derivative of finite element node 6 (number of elements = 1; element order = 5) translational displacement in Y, m/s
         57   -7.573889923096E+001                                                     T               2         First time derivative of finite element node 6 (number of elements = 1; element order = 5) translational displacement in Z, m/s
         58    1.256393671036E+000                                                     T               2         First time derivative of finite element node 6 (number of elements = 1; element order = 5) rotational displacement in X, rad/s
         59   -6.348122376949E-003                                                     T               2         First time derivative of finite element node 6 (number of elements = 1; element order = 5) rotational displacement in Y, rad/s
         60   -7.038602977991E-002                                                     T               2         First time derivative of finite element node 6 (number of elements = 1; element order = 5) rotational displacement in Z, rad/s

Order of continuous state derivatives:
   Row/Column Operating Point                                                   Rotating Frame? Derivative Order Description
   ---------- ---------------                                                   --------------- ---------------- -----------
          1   -4.843535423279E-001                                                     T               2         First time derivative of finite element node 2 (number of elements = 1; element order = 5) translational displacement in X, m/s
          2   -3.295289278030E+000                                                     T               2         First time derivative of finite element node 2 (number of elements = 1; element order = 5) translational displacement in Y, m/s
          3   -1.052200889587E+001                                                     T               2         First time derivative of finite element node 2 (number of elements = 1; element order = 5) translational displacement in Z, m/s
          4    1.264906883240E+000                                                     T               2         First time derivative of finite element node 2 (number of elements = 1; element order = 5) rotational displacement in X, rad/s
          5    2.493637439329E-004                                                     T               2         First time derivative of finite element node 2 (number of elements = 1; element order = 5) rotational displacement in Y, rad/s
          6   -5.562774091959E-002                                                     T               2         First time derivative of finite element node 2 (number of elements = 1; element order = 5) rotational displacement in Z, rad/s
          7   -1.265920639038E+000                                                     T               2         First time derivative of finite element node 3 (number of elements = 1; element order = 5) translational displacement in X, m/s
          8   -8.870395660400E+000                                                     T               2         First time derivative of finite element node 3 (number of elements = 1; element order = 5) translational displacement in Y, m/s
          9   -2.829674720764E+001                                                     T               2         First time derivative of finite element node 3 (number of elements = 1; element order = 5) translational displacement in Z, m/s
         10    1.262050509453E+000                                                     T               2         First time derivative of finite element node 3 (number of elements = 1; element order = 5) rotational displacement in X, rad/s
         11    1.828067070164E-005                                                     T               2         First time derivative of finite element node 3 (number of elements = 1; element order = 5) rotational displacement in Y, rad/s
         12   -5.576780065894E-002                                                     T               2         First time derivative of finite element node 3 (number of elements = 1; element order = 5) rotational displacement in Z, rad/s
         13   -2.219243288040E+000                                                     T               2         First time derivative of finite element node 4 (number of elements = 1; element order = 5) translational displacement in X, m/s
         14   -1.549174308777E+001                                                     T               2         First time derivative of finite element node 4 (number of elements = 1; element order = 5) translational displacement in Y, m/s
         15   -4.938125228882E+001                                                     T               2         First time derivative of finite element node 4 (number of elements = 1; element order = 5) translational displacement in Z, m/s
         16    1.259010910988E+000                                                     T               2         First time derivative of finite element node 4 (number of elements = 1; element order = 5) rotational displacement in X, rad/s
         17   -1.662166207097E-003                                                     T               2         First time derivative of finite element node 4 (number of elements = 1; element order = 5) rotational displacement in Y, rad/s
         18   -5.862229689956E-002                                                     T               2         First time derivative of finite element node 4 (number of elements = 1; element order = 5) rotational displacement in Z, rad/s
         19   -3.103283643723E+000                                                     T               2         First time derivative of finite element node 5 (number of elements = 1; element order = 5) translational displacement in X, m/s
         20   -2.104996109009E+001                                                     T               2         First time derivative of finite element node 5 (number of elements = 1; element order = 5) translational displacement in Y, m/s
         21   -6.708267211914E+001                                                     T               2         First time derivative of finite element node 5 (number of elements = 1; element order = 5) translational displacement in Z, m/s
         22    1.256891608238E+000                                                     T               2         First time derivative of finite element node 5 (number of elements = 1; element order = 5) rotational displacement in X, rad/s
         23   -4.706008359790E-003                                                     T               2         First time derivative of finite element node 5 (number of elements = 1; element order = 5) rotational displacement in Y, rad/s
         24   -6.569197028875E-002                                                     T               2         First time derivative of finite element node 5 (number of elements = 1; element order = 5) rotational displacement in Z, rad/s
         25   -3.588558673859E+000                                                     T               2         First time derivative of finite element node 6 (number of elements = 1; element order = 5) translational displacement in X, m/s
         26   -2.376804161072E+001                                                     T               2         First time derivative of finite element node 6 (number of elements = 1; element order = 5) translational displacement in Y, m/s
         27   -7.573889923096E+001                                                     T               2         First time derivative of finite element node 6 (number of elements = 1; element order = 5) translational displacement in Z, m/s
         28    1.256393671036E+000                                                     T               2         First time derivative of finite element node 6 (number of elements = 1; element order = 5) rotational displacement in X, rad/s
         29   -6.348122376949E-003                                                     T               2         First time derivative of finite element node 6 (number of elements = 1; element order = 5) rotational displacement in Y, rad/s
         30   -7.038602977991E-002                                                     T               2         First time derivative of finite element node 6 (number of elements = 1; element order = 5) rotational displacement in Z, rad/s
         31   -5.676308646798E-002                                                     T               2         First time derivative of First time derivative of finite element node 2 (number of elements = 1; element order = 5) translational displacement in X, m/s/s
         32    1.325627326965E+001                                                     T               2         First time derivative of First time derivative of finite element node 2 (number of elements = 1; element order = 5) translational displacement in Y, m/s/s
         33   -4.136301994324E+000                                                     T               2         First time derivative of First time derivative of finite element node 2 (number of elements = 1; element order = 5) translational displacement in Z, m/s/s
         34    1.165008172393E-003                                                     T               2         First time derivative of First time derivative of finite element node 2 (number of elements = 1; element order = 5) rotational displacement in X, rad/s/s
         35    7.222210522741E-003                                                     T               2         First time derivative of First time derivative of finite element node 2 (number of elements = 1; element order = 5) rotational displacement in Y, rad/s/s
         36    1.335598528385E-002                                                     T               2         First time derivative of First time derivative of finite element node 2 (number of elements = 1; element order = 5) rotational displacement in Z, rad/s/s
         37   -3.183869123459E-001                                                     T               2         First time derivative of First time derivative of finite element node 3 (number of elements = 1; element order = 5) translational displacement in X, m/s/s
         38    3.575577926636E+001                                                     T               2         First time derivative of First time derivative of finite element node 3 (number of elements = 1; element order = 5) translational displacement in Y, m/s/s
         39   -1.117071914673E+001                                                     T               2         First time derivative of First time derivative of finite element node 3 (number of elements = 1; element order = 5) translational displacement in Z, m/s/s
         40   -4.685742780566E-003                                                     T               2         First time derivative of First time derivative of finite element node 3 (number of elements = 1; element order = 5) rotational displacement in X, rad/s/s
         41    4.933867021464E-004                                                     T               2         First time derivative of First time derivative of finite element node 3 (number of elements = 1; element order = 5) rotational displacement in Y, rad/s/s
         42   -9.307124651968E-003                                                     T               2         First time derivative of First time derivative of finite element node 3 (number of elements = 1; element order = 5) rotational displacement in Z, rad/s/s
         43   -9.959462285042E-001                                                     T               2         First time derivative of First time derivative of finite element node 4 (number of elements = 1; element order = 5) translational displacement in X, m/s/s
         44    6.244930267334E+001                                                     T               2         First time derivative of First time derivative of finite element node 4 (number of elements = 1; element order = 5) translational displacement in Y, m/s/s
         45   -1.932652664185E+001                                                     T               2         First time derivative of First time derivative of finite element node 4 (number of elements = 1; element order = 5) translational displacement in Z, m/s/s
         46   -1.534660719335E-002                                                     T               2         First time derivative of First time derivative of finite element node 4 (number of elements = 1; element order = 5) rotational displacement in X, rad/s/s
         47    5.621908348985E-004                                                     T               2         First time derivative of First time derivative of finite element node 4 (number of elements = 1; element order = 5) rotational displacement in Y, rad/s/s
         48   -1.221695356071E-002                                                     T               2         First time derivative of First time derivative of finite element node 4 (number of elements = 1; element order = 5) rotational displacement in Z, rad/s/s
         49   -8.680531382561E-001                                                     T               2         First time derivative of First time derivative of finite element node 5 (number of elements = 1; element order = 5) translational displacement in X, m/s/s
         50    8.482885742188E+001                                                     T               2         First time derivative of First time derivative of finite element node 5 (number of elements = 1; element order = 5) translational displacement in Y, m/s/s
         51   -2.609179115295E+001                                                     T               2         First time derivative of First time derivative of finite element node 5 (number of elements = 1; element order = 5) translational displacement in Z, m/s/s
         52   -1.029801834375E-002                                                     T               2         First time derivative of First time derivative of finite element node 5 (number of elements = 1; element order = 5) rotational displacement in X, rad/s/s
         53    3.423764929175E-002                                                     T               2         First time derivative of First time derivative of finite element node 5 (number of elements = 1; element order = 5) rotational displacement in Y, rad/s/s
         54    8.157630264759E-002                                                     T               2         First time derivative of First time derivative of finite element node 5 (number of elements = 1; element order = 5) rotational displacement in Z, rad/s/s
         55    4.311545565724E-002                                                     T               2         First time derivative of First time derivative of finite element node 6 (number of elements = 1; element order = 5) translational displacement in X, m/s/s
         56    9.572296142578E+001                                                     T               2         First time derivative of First time derivative of finite element node 6 (number of elements = 1; element order = 5) translational displacement in Y, m/s/s
         57   -2.948698616028E+001                                                     T               2         First time derivative of First time derivative of finite element node 6 (number of elements = 1; element order = 5) translational displacement in Z, m/s/s
         58   -3.182414686307E-003                                                     T               2         First time derivative of First time derivative of finite element node 6 (number of elements = 1; element order = 5) rotational displacement in X, rad/s/s