
Linearized model: Predictions were generated on 03-Jul-2025 at 03:22:20 using OpenFAST, compiled on Jun 19 2025 at 03:54:01 as a 64-bit application using single precision at commit v4.1.0
 linked with  NWTC Subroutine Library; ElastoDyn; InflowWind; AeroDyn; ServoDyn

Description from the FAST input file: NREL                   MW          - Baseline Wind Turbine (Onshore), Linearization with AeroDyn + ED

Simulation information:
   Simulation time:                     0.0000 s
   Rotor Speed:                         0.8763 rad/s
   Azimuth:                             0.0000 rad
   Wind Speed:                          8.0000 m/s
   Number of continuous states:        32
   Number of discrete states:           0
   Number of constraint states:         0
   Number of inputs:                    6
   Number of outputs:                  33
   Jacobians included in this file?    No

Order of continuous states:
   Row/Column Operating Point                                                   Rotating Frame? Derivative Order Description
   ---------- ---------------                                                   --------------- ---------------- -----------
          1    0.000000000000E+000                                                     F               2         1st tower fore-aft bending mode DOF (internal DOF index = DOF_TFA1), m
          2    0.000000000000E+000                                                     F               2         1st tower side-to-side bending mode DOF (internal DOF index = DOF_TSS1), m
          3    0.000000000000E+000                                                     F               2         2nd tower fore-aft bending mode DOF (internal DOF index = DOF_TFA2), m
          4    0.000000000000E+000                                                     F               2         2nd tower side-to-side bending mode DOF (internal DOF index = DOF_TSS2), m
          5    0.000000000000E+000                                                     F               2         Nacelle yaw DOF (internal DOF index = DOF_Yaw), rad
          6    4.712388992310E+000                                                     F               2         Variable speed generator DOF (internal DOF index = DOF_GeAz), rad
          7    0.000000000000E+000                                                     F               2         Drivetrain rotational-flexibility DOF (internal DOF index = DOF_DrTr), rad
          8    0.000000000000E+000                                                     T               2         1st flapwise bending-mode DOF of blade 1 (internal DOF index = DOF_BF(1,1)), m
          9    0.000000000000E+000                                                     T               2         1st flapwise bending-mode DOF of blade 2 (internal DOF index = DOF_BF(2,1)), m
         10    0.000000000000E+000                                                     T               2         1st flapwise bending-mode DOF of blade 3 (internal DOF index = DOF_BF(3,1)), m
         11    0.000000000000E+000                                                     T               2         1st edgewise bending-mode DOF of blade 1 (internal DOF index = DOF_BE(1,1)), m
         12    0.000000000000E+000                                                     T               2         1st edgewise bending-mode DOF of blade 2 (internal DOF index = DOF_BE(2,1)), m
         13    0.000000000000E+000                                                     T               2         1st edgewise bending-mode DOF of blade 3 (internal DOF index = DOF_BE(3,1)), m
         14    0.000000000000E+000                                                     T               2         2nd flapwise bending-mode DOF of blade 1 (internal DOF index = DOF_BF(1,2)), m
         15    0.000000000000E+000                                                     T               2         2nd flapwise bending-mode DOF of blade 2 (internal DOF index = DOF_BF(2,2)), m
         16    0.000000000000E+000                                                     T               2         2nd flapwise bending-mode DOF of blade 3 (internal DOF index = DOF_BF(3,2)), m
         17    0.000000000000E+000                                                     F               2         First time derivative of 1st tower fore-aft bending mode DOF (internal DOF index = DOF_TFA1), m/s
         18    0.000000000000E+000                                                     F               2         First time derivative of 1st tower side-to-side bending mode DOF (internal DOF index = DOF_TSS1), m/s
         19    0.000000000000E+000                                                     F               2         First time derivative of 2nd tower fore-aft bending mode DOF (internal DOF index = DOF_TFA2), m/s
         20    0.000000000000E+000                                                     F               2         First time derivative of 2nd tower side-to-side bending mode DOF (internal DOF index = DOF_TSS2), m/s
         21    0.000000000000E+000                                                     F               2         First time derivative of Nacelle yaw DOF (internal DOF index = DOF_Yaw), rad/s
         22    8.763389587402E-001                                                     F               2         First time derivative of Variable speed generator DOF (internal DOF index = DOF_GeAz), rad/s
         23    0.000000000000E+000                                                     F               2         First time derivative of Drivetrain rotational-flexibility DOF (internal DOF index = DOF_DrTr), rad/s
         24    0.000000000000E+000                                                     T               2         First time derivative of 1st flapwise bending-mode DOF of blade 1 (internal DOF index = DOF_BF(1,1)), m/s
         25    0.000000000000E+000                                                     T               2         First time derivative of 1st flapwise bending-mode DOF of blade 2 (internal DOF index = DOF_BF(2,1)), m/s
         26    0.000000000000E+000                                                     T               2         First time derivative of 1st flapwise bending-mode DOF of blade 3 (internal DOF index = DOF_BF(3,1)), m/s
         27    0.000000000000E+000                                                     T               2         First time derivative of 1st edgewise bending-mode DOF of blade 1 (internal DOF index = DOF_BE(1,1)), m/s
         28    0.000000000000E+000                                                     T               2         First time derivative of 1st edgewise bending-mode DOF of blade 2 (internal DOF index = DOF_BE(2,1)), m/s
         29    0.000000000000E+000                                                     T               2         First time derivative of 1st edgewise bending-mode DOF of blade 3 (internal DOF index = DOF_BE(3,1)), m/s
         30    0.000000000000E+000                                                     T               2         First time derivative of 2nd flapwise bending-mode DOF of blade 1 (internal DOF index = DOF_BF(1,2)), m/s
         31    0.000000000000E+000                                                     T               2         First time derivative of 2nd flapwise bending-mode DOF of blade 2 (internal DOF index = DOF_BF(2,2)), m/s
         32    0.000000000000E+000                                                     T               2         First time derivative of 2nd flapwise bending-mode DOF of blade 3 (internal DOF index = DOF_BF(3,2)), m/s

Order of continuous state derivatives:
   Row/Column Operating Point                                                   Rotating Frame? Derivative Order Description
   ---------- ---------------                                                   --------------- ---------------- -----------
          1    0.000000000000E+000                                                     F               2         First time derivative of 1st tower fore-aft bending mode DOF (internal DOF index = DOF_TFA1), m/s
          2    0.000000000000E+000                                                     F               2         First time derivative of 1st tower side-to-side bending mode DOF (internal DOF index = DOF_TSS1), m/s
          3    0.000000000000E+000                                                     F               2         First time derivative of 2nd tower fore-aft bending mode DOF (internal DOF index = DOF_TFA2), m/s
          4    0.000000000000E+000                                                     F               2         First time derivative of 2nd tower side-to-side bending mode DOF (internal DOF index = DOF_TSS2), m/s
          5    0.000000000000E+000                                                     F               2         First time derivative of Nacelle yaw DOF (internal DOF index = DOF_Yaw), rad/s
          6    8.763389587402E-001                                                     F               2         First time derivative of Variable speed generator DOF (internal DOF index = DOF_GeAz), rad/s
          7    0.000000000000E+000                                                     F               2         First time derivative of Drivetrain rotational-flexibility DOF (internal DOF index = DOF_DrTr), rad/s
          8    0.000000000000E+000                                                     T               2         First time derivative of 1st flapwise bending-mode DOF of blade 1 (internal DOF index = DOF_BF(1,1)), m/s
          9    0.000000000000E+000                                                     T               2         First time derivative of 1st flapwise bending-mode DOF of blade 2 (internal DOF index = DOF_BF(2,1)), m/s
         10    0.000000000000E+000                                                     T               2         First time derivative of 1st flapwise bending-mode DOF of blade 3 (internal DOF index = DOF_BF(3,1)), m/s
         11    0.000000000000E+000                                                     T               2         First time derivative of 1st edgewise bending-mode DOF of blade 1 (internal DOF index = DOF_BE(1,1)), m/s
         12    0.000000000000E+000                                                     T               2         First time derivative of 1st edgewise bending-mode DOF of blade 2 (internal DOF index = DOF_BE(2,1)), m/s
         13    0.000000000000E+000                                                     T               2         First time derivative of 1st edgewise bending-mode DOF of blade 3 (internal DOF index = DOF_BE(3,1)), m/s
         14    0.000000000000E+000                                                     T               2         First time derivative of 2nd flapwise bending-mode DOF of blade 1 (internal DOF index = DOF_BF(1,2)), m/s
         15    0.000000000000E+000                                                     T               2         First time derivative of 2nd flapwise bending-mode DOF of blade 2 (internal DOF index = DOF_BF(2,2)), m/s
         16    0.000000000000E+000                                                     T               2         First time derivative of 2nd flapwise bending-mode DOF of blade 3 (internal DOF index = DOF_BF(3,2)), m/s
         17   -5.548619106412E-002                                                     F               2         First time derivative of First time derivative of 1st tower fore-aft bending mode DOF (internal DOF index = DOF_TFA1), m/s/s
         18    8.407759596594E-004                                                     F               2         First time derivative of First time derivative of 1st tower side-to-side bending mode DOF (internal DOF index = DOF_TSS1), m/s/s
         19   -1.894056983292E-002                                                     F               2         First time derivative of First time derivative of 2nd tower fore-aft bending mode DOF (internal DOF index = DOF_TFA2), m/s/s
         20   -6.477998340415E-006                                                     F               2         First time derivative of First time derivative of 2nd tower side-to-side bending mode DOF (internal DOF index = DOF_TSS2), m/s/s
         21   -9.973279200494E-003                                                     F               2         First time derivative of First time derivative of Nacelle yaw DOF (internal DOF index = DOF_Yaw), rad/s/s
         22   -9.074055014935E-006                                                     F               2         First time derivative of First time derivative of Variable speed generator DOF (internal DOF index = DOF_GeAz), rad/s/s
         23    4.060541465878E-002                                                     F               2         First time derivative of First time derivative of Drivetrain rotational-flexibility DOF (internal DOF index = DOF_DrTr), rad/s/s
         24    5.708036422729E+001                                                     T               2         First time derivative of First time derivative of 1st flapwise bending-mode DOF of blade 1 (internal DOF index = DOF_BF(1,1)), m/s/s
         25    6.270958709717E+001                                                     T               2         First time derivative of First time derivative of 1st flapwise bending-mode DOF of blade 2 (internal DOF index = DOF_BF(2,1)), m/s/s
         26    5.168253326416E+001                                                     T               2         First time derivative of First time derivative of 1st flapwise bending-mode DOF of blade 3 (internal DOF index = DOF_BF(3,1)), m/s/s
         27    6.137730121613E+000                                                     T               2         First time derivative of First time derivative of 1st edgewise bending-mode DOF of blade 1 (internal DOF index = DOF_BE(1,1)), m/s/s
         28   -1.107019996643E+001                                                     T               2         First time derivative of First time derivative of 1st edgewise bending-mode DOF of blade 2 (internal DOF index = DOF_BE(2,1)), m/s/s
         29    2.314011192322E+001                                                     T               2         First time derivative of First time derivative of 1st edgewise bending-mode DOF of blade 3 (internal DOF index = DOF_BE(3,1)), m/s/s
         30   -3.711856603622E+000                                                     T               2         First time derivative of First time derivative of 2nd flapwise bending-mode DOF of blade 1 (internal DOF index = DOF_BF(1,2)), m/s/s
         31   -6.693327426910E+000                                                     T               2         First time derivative of First time derivative of 2nd flapwise bending-mode DOF of blade 2 (internal DOF index = DOF_BF(2,2)), m/s/s
         32   -1.131967827678E-002                                                     T               2         First time derivative of First time derivative of 2nd flapwise bending-mode DOF of blade 3 (internal DOF index = DOF_BF(3,2)), m/s/s

Order of inputs:
     Column   Operating Point                                                   Rotating Frame? Derivative Order Description
   ---------- ---------------                                                   --------------- ---------------- -----------
          1    0.000000000000E+000                                                     T               0         Blade 1 pitch command, rad
          2    0.000000000000E+000                                                     T               0         Blade 2 pitch command, rad
          3    0.000000000000E+000                                                     T               0         Blade 3 pitch command, rad
          4    0.000000000000E+000                                                     F               0         Yaw moment, Nm
          5    0.000000000000E+000                                                     F               0         Generator torque, Nm
          6    0.000000000000E+000                                                     F               0         Extended input: collective blade-pitch command, rad

Order of outputs:
        Row   Operating Point                                                   Rotating Frame? Derivative Order Description
   ---------- ---------------                                                   --------------- ---------------- -----------
          1    0.000000000000E+000                                                     T               0         OoPDefl1, (m)
          2    0.000000000000E+000                                                     T               0         IPDefl1, (m)
          3    0.000000000000E+000                                                     T               0         TwstDefl1, (deg)
          4    0.000000000000E+000                                                     T               0         BldPitch1, (deg)
          5    0.000000000000E+000                                                     F               0         Azimuth, (deg)
          6    8.368420600891E+000                                                     F               0         RotSpeed, (rpm)
          7    8.117368164062E+002                                                     F               0         GenSpeed, (rpm)
          8    0.000000000000E+000                                                     F               0         TTDspFA, (m)
          9    0.000000000000E+000                                                     F               0         TTDspSS, (m)
         10    0.000000000000E+000                                                     F               0         TTDspTwst, (deg)
         11    1.852671861649E+000                                                     T               0         Spn2MLxb1, (kN-m)
         12   -7.933485984802E+000                                                     T               0         Spn2MLyb1, (kN-m)
         13    9.743775367737E+000                                                     T               0         RootFxb1, (kN)
         14   -6.281538605690E-001                                                     T               0         RootFyb1, (kN)
         15    1.275806503296E+002                                                     T               0         RootFzb1, (kN)
         16    5.226063728333E+000                                                     T               0         RootMxb1, (kN-m)
         17    8.489878082275E+001                                                     T               0         RootMyb1, (kN-m)
         18   -1.160395513011E-007                                                     T               0         RootMzb1, (kN-m)
         19   -1.497791236034E-004                                                     F               0         RotTorq, (kN-m)
         20   -1.935470825195E+003                                                     F               0         LSSGagMya, (kN-m)
         21   -4.262524795532E+001                                                     F               0         LSSGagMza, (kN-m)
         22    1.550881767273E+001                                                     F               0         YawBrFxp, (kN)
         23   -8.020777255297E-002                                                     F               0         YawBrFyp, (kN)
         24   -3.323028564453E+003                                                     F               0         YawBrFzp, (kN)
         25   -1.169772267342E+000                                                     F               0         YawBrMxp, (kN-m)
         26   -4.112188110352E+002                                                     F               0         YawBrMyp, (kN-m)
         27   -7.148027634685E-006                                                     F               0         YawBrMzp, (kN-m)
         28   -1.434354496002E+001                                                     F               0         TwrBsFxt, (kN)
         29    2.223363332450E-002                                                     F               0         TwrBsFyt, (kN)
         30   -6.730450683594E+003                                                     F               0         TwrBsFzt, (kN)
         31   -4.330844283104E-001                                                     F               0         TwrBsMxt, (kN-m)
         32   -3.311100769043E+002                                                     F               0         TwrBsMyt, (kN-m)
         33   -7.148027634685E-006                                                     F               0         TwrBsMzt, (kN-m)


Linearized state matrices:

A: 32 x 32
    0.000000000000E+000  0.000000000000E+000  0.000000000000E+000  0.000000000000E+000  0.000000000000E+000  0.000000000000E+000  0.000000000000E+000  0.000000000000E+000  0.000000000000E+000  0.000000000000E+000  0.000000000000E+000  0.000000000000E+000  0.000000000000E+000  0.000000000000E+000  0.000000000000E+000  0.000000000000E+000  1.000000000000E+000  0.000000000000E+000  0.000000000000E+000  0.000000000000E+000  0.000000000000E+000  0.000000000000E+000  0.000000000000E+000  0.000000000000E+000  0.000000000000E+000  0.000000000000E+000  0.000000000000E+000  0.000000000000E+000  0.000000000000E+000  0.000000000000E+000  0.000000000000E+000  0.000000000000E+000
    0.000000000000E+000  0.000000000000E+000  0.000000000000E+000  0.000000000000E+000  0.000000000000E+000  0.000000000000E+000  0.000000000000E+000  0.000000000000E+000  0.000000000000E+000  0.000000000000E+000  0.000000000000E+000  0.000000000000E+000  0.000000000000E+000  0.000000000000E+000  0.000000000000E+000  0.000000000000E+000  0.000000000000E+000  1.000000000000E+000  0.000000000000E+000  0.000000000000E+000  0.000000000000E+000  0.000000000000E+000  0.000000000000E+000  0.000000000000E+000  0.000000000000E+000  0.000000000000E+000  0.000000000000E+000  0.000000000000E+000  0.000000000000E+000  0.000000000000E+000  0.000000000000E+000  0.000000000000E+000
    0.000000000000E+000  0.000000000000E+000  0.000000000000E+000  0.000000000000E+000  0.000000000000E+000  0.000000000000E+000  0.000000000000E+000  0.000000000000E+000  0.000000000000E+000  0.000000000000E+000  0.000000000000E+000  0.000000000000E+000  0.000000000000E+000  0.000000000000E+000  0.000000000000E+000  0.000000000000E+000  0.000000000000E+000  0.000000000000E+000  1.000000000000E+000  0.000000000000E+000  0.000000000000E+000  0.000000000000E+000  0.000000000000E+000  0.000000000000E+000  0.000000000000E+000  0.000000000000E+000  0.000000000000E+000  0.000000000000E+000  0.000000000000E+000  0.000000000000E+000  0.000000000000E+000  0.000000000000E+000
    0.000000000000E+000  0.000000000000E+000  0.000000000000E+000  0.000000000000E+000  0.000000000000E+000  0.000000000000E+000  0.000000000000E+000  0.000000000000E+000  0.000000000000E+000  0.000000000000E+000  0.000000000000E+000  0.000000000000E+000  0.000000000000E+000  0.000000000000E+000  0.000000000000E+000  0.000000000000E+000  0.000000000000E+000  0.000000000000E+000  0.000000000000E+000  1.000000000000E+000  0.000000000000E+000  0.000000000000E+000  0.000000000000E+000  0.000000000000E+000  0.000000000000E+000  0.000000000000E+000  0.000000000000E+000  0.000000000000E+000  0.000000000000E+000  0.000000000000E+000  0.000000000000E+000  0.000000000000E+000
    0.000000000000E+000  0.000000000000E+000  0.000000000000E+000  0.000000000000E+000  0.000000000000E+000  0.000000000000E+000  0.000000000000E+000  0.000000000000E+000  0.000000000000E+000  0.000000000000E+000  0.000000000000E+000  0.000000000000E+000  0.000000000000E+000  0.000000000000E+000  0.000000000000E+000  0.000000000000E+000  0.000000000000E+000  0.000000000000E+000  0.000000000000E+000  0.000000000000E+000  1.000000000000E+000  0.000000000000E+000  0.000000000000E+000  0.000000000000E+000  0.000000000000E+000  0.000000000000E+000  0.000000000000E+000  0.000000000000E+000  0.000000000000E+000  0.000000000000E+000  0.000000000000E+000  0.000000000000E+000
    0.000000000000E+000  0.000000000000E+000  0.000000000000E+000  0.000000000000E+000  0.000000000000E+000  0.000000000000E+000  0.000000000000E+000  0.000000000000E+000  0.000000000000E+000  0.000000000000E+000  0.000000000000E+000  0.000000000000E+000  0.000000000000E+000  0.000000000000E+000  0.000000000000E+000  0.000000000000E+000  0.000000000000E+000  0.000000000000E+000  0.000000000000E+000  0.000000000000E+000  0.000000000000E+000  1.000000000000E+000  0.000000000000E+000  0.000000000000E+000  0.000000000000E+000  0.000000000000E+000  0.000000000000E+000  0.000000000000E+000  0.000000000000E+000  0.000000000000E+000  0.000000000000E+000  0.000000000000E+000
    0.000000000000E+000  0.000000000000E+000  0.000000000000E+000  0.000000000000E+000  0.000000000000E+000  0.000000000000E+000  0.000000000000E+000  0.000000000000E+000  0.000000000000E+000  0.000000000000E+000  0.000000000000E+000  0.000000000000E+000  0.000000000000E+000  0.000000000000E+000  0.000000000000E+000  0.000000000000E+000  0.000000000000E+000  0.000000000000E+000  0.000000000000E+000  0.000000000000E+000  0.000000000000E+000  0.000000000000E+000  1.000000000000E+000  0.000000000000E+000  0.000000000000E+000  0.000000000000E+000  0.000000000000E+000  0.000000000000E+000  0.000000000000E+000  0.000000000000E+000  0.000000000000E+000  0.000000000000E+000
    0.000000000000E+000  0.000000000000E+000  0.000000000000E+000  0.000000000000E+000  0.000000000000E+000  0.000000000000E+000  0.000000000000E+000  0.000000000000E+000  0.000000000000E+000  0.000000000000E+000  0.000000000000E+000  0.000000000000E+000  0.000000000000E+000  0.000000000000E+000  0.000000000000E+000  0.000000000000E+000  0.000000000000E+000  0.000000000000E+000  0.000000000000E+000  0.000000000000E+000  0.000000000000E+000  0.000000000000E+000  0.000000000000E+000  1.000000000000E+000  0.000000000000E+000  0.000000000000E+000  0.000000000000E+000  0.000000000000E+000  0.000000000000E+000  0.000000000000E+000  0.000000000000E+000  0.000000000000E+000
    0.000000000000E+000  0.000000000000E+000  0.000000000000E+000  0.000000000000E+000  0.000000000000E+000  0.000000000000E+000  0.000000000000E+000  0.000000000000E+000  0.000000000000E+000  0.000000000000E+000  0.000000000000E+000  0.000000000000E+000  0.000000000000E+000  0.000000000000E+000  0.000000000000E+000  0.000000000000E+000  0.000000000000E+000  0.000000000000E+000  0.000000000000E+000  0.000000000000E+000  0.000000000000E+000  0.000000000000E+000  0.000000000000E+000  0.000000000000E+000  1.000000000000E+000  0.000000000000E+000  0.000000000000E+000  0.000000000000E+000  0.000000000000E+000  0.000000000000E+000  0.000000000000E+000  0.000000000000E+000
    0.000000000000E+000  0.000000000000E+000  0.000000000000E+000  0.000000000000E+000  0.000000000000E+000  0.000000000000E+000  0.000000000000E+000  0.000000000000E+000  0.000000000000E+000  0.000000000000E+000  0.000000000000E+000  0.000000000000E+000  0.000000000000E+000  0.000000000000E+000  0.000000000000E+000  0.000000000000E+000  0.000000000000E+000  0.000000000000E+000  0.000000000000E+000  0.000000000000E+000  0.000000000000E+000  0.000000000000E+000  0.000000000000E+000  0.000000000000E+000  0.000000000000E+000  1.000000000000E+000  0.000000000000E+000  0.000000000000E+000  0.000000000000E+000  0.000000000000E+000  0.000000000000E+000  0.000000000000E+000
    0.000000000000E+000  0.000000000000E+000  0.000000000000E+000  0.000000000000E+000  0.000000000000E+000  0.000000000000E+000  0.000000000000E+000  0.000000000000E+000  0.000000000000E+000  0.000000000000E+000  0.000000000000E+000  0.000000000000E+000  0.000000000000E+000  0.000000000000E+000  0.000000000000E+000  0.000000000000E+000  0.000000000000E+000  0.000000000000E+000  0.000000000000E+000  0.000000000000E+000  0.000000000000E+000  0.000000000000E+000  0.000000000000E+000  0.000000000000E+000  0.000000000000E+000  0.000000000000E+000  1.000000000000E+000  0.000000000000E+000  0.000000000000E+000  0.000000000000E+000  0.000000000000E+000  0.000000000000E+000
    0.000000000000E+000  0.000000000000E+000  0.000000000000E+000  0.000000000000E+000  0.000000000000E+000  0.000000000000E+000  0.000000000000E+000  0.000000000000E+000  0.000000000000E+000  0.000000000000E+000  0.000000000000E+000  0.000000000000E+000  0.000000000000E+000  0.000000000000E+000  0.000000000000E+000  0.000000000000E+000  0.000000000000E+000  0.000000000000E+000  0.000000000000E+000  0.000000000000E+000  0.000000000000E+000  0.000000000000E+000  0.000000000000E+000  0.000000000000E+000  0.000000000000E+000  0.000000000000E+000  0.000000000000E+000  1.000000000000E+000  0.000000000000E+000  0.000000000000E+000  0.000000000000E+000  0.000000000000E+000
    0.000000000000E+000  0.000000000000E+000  0.000000000000E+000  0.000000000000E+000  0.000000000000E+000  0.000000000000E+000  0.000000000000E+000  0.000000000000E+000  0.000000000000E+000  0.000000000000E+000  0.000000000000E+000  0.000000000000E+000  0.000000000000E+000  0.000000000000E+000  0.000000000000E+000  0.000000000000E+000  0.000000000000E+000  0.000000000000E+000  0.000000000000E+000  0.000000000000E+000  0.000000000000E+000  0.000000000000E+000  0.000000000000E+000  0.000000000000E+000  0.000000000000E+000  0.000000000000E+000  0.000000000000E+000  0.000000000000E+000  1.000000000000E+000  0.000000000000E+000  0.000000000000E+000  0.000000000000E+000