
Linearized model: Predictions were generated on 27-Jun-2025 at 00:03:32 using OpenFAST, compiled on Jun 19 2025 at 03:54:01 as a 64-bit application using single precision at commit v4.1.0
 linked with  NWTC Subroutine Library; ElastoDyn; InflowWind; AeroDyn; ServoDyn

Description from the FAST input file: NREL 5.0 MW Baseline Wind Turbine (Onshore), Linearization with AeroDyn + ED

Simulation information:
   Simulation time:                   408.5400 s
   Rotor Speed:                         1.0001 rad/s
   Azimuth:                             2.0955 rad
   Wind Speed:                          8.0000 m/s
   Number of continuous states:       258
   Number of discrete states:           0
   Number of constraint states:         0
   Number of inputs:                   69
   Number of outputs:                   5
   Jacobians included in this file?    No

Order of continuous states:
   Row/Column Operating Point                                                   Rotating Frame? Derivative Order Description
   ---------- ---------------                                                   --------------- ---------------- -----------
          1    2.082221359015E-001                                                     F               2         ED 1st tower fore-aft bending mode DOF (internal DOF index = DOF_TFA1), m
          2    2.180067636073E-002                                                     F               2         ED 1st tower side-to-side bending mode DOF (internal DOF index = DOF_TSS1), m
          3   -7.278274279088E-005                                                     F               2         ED 2nd tower fore-aft bending mode DOF (internal DOF index = DOF_TFA2), m
          4    1.409123215126E-004                                                     F               2         ED 2nd tower side-to-side bending mode DOF (internal DOF index = DOF_TSS2), m
          5    5.225670337677E-001                                                     F               2         ED Variable speed generator DOF (internal DOF index = DOF_GeAz), rad
          6    2.180751878768E-003                                                     F               2         ED Drivetrain rotational-flexibility DOF (internal DOF index = DOF_DrTr), rad
          7    3.351728200912E+000                                                     T               2         ED 1st flapwise bending-mode DOF of blade 1 (internal DOF index = DOF_BF(1,1)), m
          8    3.050723552704E+000                                                     T               2         ED 1st flapwise bending-mode DOF of blade 2 (internal DOF index = DOF_BF(2,1)), m
          9    3.175548315048E+000                                                     T               2         ED 1st flapwise bending-mode DOF of blade 3 (internal DOF index = DOF_BF(3,1)), m
         10   -3.124672472477E-001                                                     T               2         ED 1st edgewise bending-mode DOF of blade 1 (internal DOF index = DOF_BE(1,1)), m
         11    4.942133128643E-001                                                     T               2         ED 1st edgewise bending-mode DOF of blade 2 (internal DOF index = DOF_BE(2,1)), m
         12    8.520602434874E-002                                                     T               2         ED 1st edgewise bending-mode DOF of blade 3 (internal DOF index = DOF_BE(3,1)), m
         13   -8.628337644041E-003                                                     T               2         ED 2nd flapwise bending-mode DOF of blade 1 (internal DOF index = DOF_BF(1,2)), m
         14    8.462383598089E-002                                                     T               2         ED 2nd flapwise bending-mode DOF of blade 2 (internal DOF index = DOF_BF(2,2)), m
         15    5.602177232504E-002                                                     T               2         ED 2nd flapwise bending-mode DOF of blade 3 (internal DOF index = DOF_BF(3,2)), m
         16    5.993625745759E-005                                                     F               2         ED First time derivative of 1st tower fore-aft bending mode DOF (internal DOF index = DOF_TFA1), m/s
         17   -8.615053375252E-004                                                     F               2         ED First time derivative of 1st tower side-to-side bending mode DOF (internal DOF index = DOF_TSS1), m/s
         18   -2.622220927151E-005                                                     F               2         ED First time derivative of 2nd tower fore-aft bending mode DOF (internal DOF index = DOF_TFA2), m/s
         19   -3.509084126563E-005                                                     F               2         ED First time derivative of 2nd tower side-to-side bending mode DOF (internal DOF index = DOF_TSS2), m/s
         20    1.000240802765E+000                                                     F               2         ED First time derivative of Variable speed generator DOF (internal DOF index = DOF_GeAz), rad/s
         21   -1.273311208934E-004                                                     F               2         ED First time derivative of Drivetrain rotational-flexibility DOF (internal DOF index = DOF_DrTr), rad/s
         22   -1.059600040317E-001                                                     T               2         ED First time derivative of 1st flapwise bending-mode DOF of blade 1 (internal DOF index = DOF_BF(1,1)), m/s
         23   -1.289776563644E-001                                                     T               2         ED First time derivative of 1st flapwise bending-mode DOF of blade 2 (internal DOF index = DOF_BF(2,1)), m/s
         24    2.048899829388E-001                                                     T               2         ED First time derivative of 1st flapwise bending-mode DOF of blade 3 (internal DOF index = DOF_BF(3,1)), m/s
         25    2.715690433979E-001                                                     T               2         ED First time derivative of 1st edgewise bending-mode DOF of blade 1 (internal DOF index = DOF_BE(1,1)), m/s
         26    2.489910870790E-001                                                     T               2         ED First time derivative of 1st edgewise bending-mode DOF of blade 2 (internal DOF index = DOF_BE(2,1)), m/s
         27   -5.011912584305E-001                                                     T               2         ED First time derivative of 1st edgewise bending-mode DOF of blade 3 (internal DOF index = DOF_BE(3,1)), m/s
         28    2.181800827384E-002                                                     T               2         ED First time derivative of 2nd flapwise bending-mode DOF of blade 1 (internal DOF index = DOF_BF(1,2)), m/s
         29    8.955466747284E-002                                                     T               2         ED First time derivative of 2nd flapwise bending-mode DOF of blade 2 (internal DOF index = DOF_BF(2,2)), m/s
         30   -6.231661140919E-002                                                     T               2         ED First time derivative of 2nd flapwise bending-mode DOF of blade 3 (internal DOF index = DOF_BF(3,2)), m/s
         31   -7.867535114288E+000                                                     T               2         AD vind (axial) at blade 1, node 1, m/s
         32    0.000000000000E+000                                                     T               2         AD vind (tangential) at blade 1, node 1, m/s
         33    0.000000000000E+000                                                     T               2         AD vind (axial) at blade 1, node 2, m/s
         34    0.000000000000E+000                                                     T               2         AD vind (tangential) at blade 1, node 2, m/s
         35    0.000000000000E+000                                                     T               2         AD vind (axial) at blade 1, node 3, m/s
         36    0.000000000000E+000                                                     T               2         AD vind (tangential) at blade 1, node 3, m/s
         37    0.000000000000E+000                                                     T               2         AD vind (axial) at blade 1, node 4, m/s
         38    0.000000000000E+000                                                     T               2         AD vind (tangential) at blade 1, node 4, m/s
         39   -2.023610115051E+000                                                     T               2         AD vind (axial) at blade 1, node 5, m/s
         40    9.549147486687E-001                                                     T               2         AD vind (tangential) at blade 1, node 5, m/s
         41   -2.183637619019E+000                                                     T               2         AD vind (axial) at blade 1, node 6, m/s
         42    7.678614258766E-001                                                     T               2         AD vind (tangential) at blade 1, node 6, m/s
         43   -2.001212358475E+000                                                     T               2         AD vind (axial) at blade 1, node 7, m/s
         44    5.867664217949E-001                                                     T               2         AD vind (tangential) at blade 1, node 7, m/s
         45   -1.985598683357E+000                                                     T               2         AD vind (axial) at blade 1, node 8, m/s
         46    4.880137145519E-001                                                     T               2         AD vind (tangential) at blade 1, node 8, m/s
         47   -2.220526456833E+000                                                     T               2         AD vind (axial) at blade 1, node 9, m/s
         48    4.494434595108E-001                                                     T               2         AD vind (tangential) at blade 1, node 9, m/s
         49   -2.293259620667E+000                                                     T               2         AD vind (axial) at blade 1, node 10, m/s
         50    4.008488357067E-001                                                     T               2         AD vind (tangential) at blade 1, node 10, m/s
         51   -2.574476718903E+000                                                     T               2         AD vind (axial) at blade 1, node 11, m/s
         52    3.795886337757E-001                                                     T               2         AD vind (tangential) at blade 1, node 11, m/s
         53   -2.774520874023E+000                                                     T               2         AD vind (axial) at blade 1, node 12, m/s
         54    3.537310957909E-001                                                     T               2         AD vind (tangential) at blade 1, node 12, m/s
         55   -2.628944396973E+000                                                     T               2         AD vind (axial) at blade 1, node 13, m/s
         56    3.124292492867E-001                                                     T               2         AD vind (tangential) at blade 1, node 13, m/s
         57   -2.741913080215E+000                                                     T               2         AD vind (axial) at blade 1, node 14, m/s
         58    2.913474440575E-001                                                     T               2         AD vind (tangential) at blade 1, node 14, m/s
         59   -2.901156425476E+000                                                     T               2         AD vind (axial) at blade 1, node 15, m/s
         60    2.748420834541E-001                                                     T               2         AD vind (tangential) at blade 1, node 15, m/s
         61   -3.157240152359E+000                                                     T               2         AD vind (axial) at blade 1, node 16, m/s
         62    2.660892605782E-001                                                     T               2         AD vind (tangential) at blade 1, node 16, m/s
         63   -3.471289157867E+000                                                     T               2         AD vind (axial) at blade 1, node 17, m/s
         64    2.631294429302E-001                                                     T               2         AD vind (tangential) at blade 1, node 17, m/s
         65   -3.619477272034E+000                                                     T               2         AD vind (axial) at blade 1, node 18, m/s
         66    2.592918276787E-001                                                     T               2         AD vind (tangential) at blade 1, node 18, m/s
         67   -7.913306713104E+000                                                     T               2         AD vind (axial) at blade 1, node 19, m/s
         68    0.000000000000E+000                                                     T               2         AD vind (tangential) at blade 1, node 19, m/s
         69   -7.544316768646E+000                                                     T               2         AD vind (axial) at blade 2, node 1, m/s
         70    0.000000000000E+000                                                     T               2         AD vind (tangential) at blade 2, node 1, m/s
         71    0.000000000000E+000                                                     T               2         AD vind (axial) at blade 2, node 2, m/s
         72    0.000000000000E+000                                                     T               2         AD vind (tangential) at blade 2, node 2, m/s
         73    0.000000000000E+000                                                     T               2         AD vind (axial) at blade 2, node 3, m/s
         74    0.000000000000E+000                                                     T               2         AD vind (tangential) at blade 2, node 3, m/s
         75    0.000000000000E+000                                                     T               2         AD vind (axial) at blade 2, node 4, m/s
         76    0.000000000000E+000                                                     T               2         AD vind (tangential) at blade 2, node 4, m/s
         77   -2.005849599838E+000                                                     T               2         AD vind (axial) at blade 2, node 5, m/s
         78    9.398018121719E-001                                                     T               2         AD vind (tangential) at blade 2, node 5, m/s
         79   -2.165362119675E+000                                                     T               2         AD vind (axial) at blade 2, node 6, m/s
         80    7.595007419586E-001                                                     T               2         AD vind (tangential) at blade 2, node 6, m/s
         81   -1.989431023598E+000                                                     T               2         AD vind (axial) at blade 2, node 7, m/s
         82    5.826449394226E-001                                                     T               2         AD vind (tangential) at blade 2, node 7, m/s
         83   -1.977926135063E+000                                                     T               2         AD vind (axial) at blade 2, node 8, m/s
         84    4.860422909260E-001                                                     T               2         AD vind (tangential) at blade 2, node 8, m/s
         85   -2.214426040649E+000                                                     T               2         AD vind (axial) at blade 2, node 9, m/s
         86    4.485601484776E-001                                                     T               2         AD vind (tangential) at blade 2, node 9, m/s
         87   -2.288514852524E+000                                                     T               2         AD vind (axial) at blade 2, node 10, m/s
         88    4.007961750031E-001                                                     T               2         AD vind (tangential) at blade 2, node 10, m/s
         89   -2.568823337555E+000                                                     T               2         AD vind (axial) at blade 2, node 11, m/s
         90    3.800415992737E-001                                                     T               2         AD vind (tangential) at blade 2, node 11, m/s
         91   -2.767267704010E+000                                                     T               2         AD vind (axial) at blade 2, node 12, m/s
         92    3.546271622181E-001                                                     T               2         AD vind (tangential) at blade 2, node 12, m/s
         93   -2.621944665909E+000                                                     T               2         AD vind (axial) at blade 2, node 13, m/s
         94    3.136216104031E-001                                                     T               2         AD vind (tangential) at blade 2, node 13, m/s
         95   -2.733909606934E+000                                                     T               2         AD vind (axial) at blade 2, node 14, m/s
         96    2.928063571453E-001                                                     T               2         AD vind (tangential) at blade 2, node 14, m/s
         97   -2.892580270767E+000                                                     T               2         AD vind (axial) at blade 2, node 15, m/s
         98    2.765437364578E-001                                                     T               2         AD vind (tangential) at blade 2, node 15, m/s
         99   -3.147677183151E+000                                                     T               2         AD vind (axial) at blade 2, node 16, m/s
        100    2.680220603943E-001                                                     T               2         AD vind (tangential) at blade 2, node 16, m/s
        101   -3.462775707245E+000                                                     T               2         AD vind (axial) at blade 2, node 17, m/s
        102    2.651225328445E-001                                                     T               2         AD vind (tangential) at blade 2, node 17, m/s
        103   -3.613927125931E+000                                                     T               2         AD vind (axial) at blade 2, node 18, m/s
        104    2.610379159451E-001                                                     T               2         AD vind (tangential) at blade 2, node 18, m/s
        105   -7.909813404083E+000                                                     T               2         AD vind (axial) at blade 2, node 19, m/s
        106    0.000000000000E+000                                                     T               2         AD vind (tangential) at blade 2, node 19, m/s
        107   -7.782700061798E+000                                                     T               2         AD vind (axial) at blade 3, node 1, m/s
        108    0.000000000000E+000                                                     T               2         AD vind (tangential) at blade 3, node 1, m/s
        109    0.000000000000E+000                                                     T               2         AD vind (axial) at blade 3, node 2, m/s
        110    0.000000000000E+000                                                     T               2         AD vind (tangential) at blade 3, node 2, m/s
        111    0.000000000000E+000                                                     T               2         AD vind (axial) at blade 3, node 3, m/s
        112    0.000000000000E+000                                                     T               2         AD vind (tangential) at blade 3, node 3, m/s
        113    0.000000000000E+000                                                     T               2         AD vind (axial) at blade 3, node 4, m/s
        114    0.000000000000E+000                                                     T               2         AD vind (tangential) at blade 3, node 4, m/s
        115   -2.014781713486E+000                                                     T               2         AD vind (axial) at blade 3, node 5, m/s
        116    9.497213959694E-001                                                     T               2         AD vind (tangential) at blade 3, node 5, m/s
        117   -2.176631927490E+000                                                     T               2         AD vind (axial) at blade 3, node 6, m/s
        118    7.649909257889E-001                                                     T               2         AD vind (tangential) at blade 3, node 6, m/s
        119   -1.996917486191E+000                                                     T               2         AD vind (axial) at blade 3, node 7, m/s
        120    5.853359699249E-001                                                     T               2         AD vind (tangential) at blade 3, node 7, m/s
        121   -1.983097910881E+000                                                     T               2         AD vind (axial) at blade 3, node 8, m/s
        122    4.873396158218E-001                                                     T               2         AD vind (tangential) at blade 3, node 8, m/s
        123   -2.219231367111E+000                                                     T               2         AD vind (axial) at blade 3, node 9, m/s
        124    4.491656720638E-001                                                     T               2         AD vind (tangential) at blade 3, node 9, m/s
        125   -2.293469429016E+000                                                     T               2         AD vind (axial) at blade 3, node 10, m/s
        126    4.009190201759E-001                                                     T               2         AD vind (tangential) at blade 3, node 10, m/s
        127   -2.576339006424E+000                                                     T               2         AD vind (axial) at blade 3, node 11, m/s
        128    3.798974454403E-001                                                     T               2         AD vind (tangential) at blade 3, node 11, m/s
        129   -2.778753280640E+000                                                     T               2         AD vind (axial) at blade 3, node 12, m/s
        130    3.542767167091E-001                                                     T               2         AD vind (tangential) at blade 3, node 12, m/s
        131   -2.635628461838E+000                                                     T               2         AD vind (axial) at blade 3, node 13, m/s
        132    3.132139444351E-001                                                     T               2         AD vind (tangential) at blade 3, node 13, m/s
        133   -2.752228260040E+000                                                     T               2         AD vind (axial) at blade 3, node 14, m/s
        134    2.923330068588E-001                                                     T               2         AD vind (tangential) at blade 3, node 14, m/s
        135   -2.916347742081E+000                                                     T               2         AD vind (axial) at blade 3, node 15, m/s
        136    2.759394943714E-001                                                     T               2         AD vind (tangential) at blade 3, node 15, m/s
        137   -3.177787303925E+000                                                     T               2         AD vind (axial) at blade 3, node 16, m/s
        138    2.671461105347E-001                                                     T               2         AD vind (tangential) at blade 3, node 16, m/s
        139   -3.493314266205E+000                                                     T               2         AD vind (axial) at blade 3, node 17, m/s
        140    2.641193568707E-001                                                     T               2         AD vind (tangential) at blade 3, node 17, m/s
        141   -3.639828205109E+000                                                     T               2         AD vind (axial) at blade 3, node 18, m/s
        142    2.601567804813E-001                                                     T               2         AD vind (tangential) at blade 3, node 18, m/s
        143   -7.920516490936E+000                                                     T               2         AD vind (axial) at blade 3, node 19, m/s
        144    0.000000000000E+000                                                     T               2         AD vind (tangential) at blade 3, node 19, m/s
        145   -3.135322570801E+000                                                     T               2         AD First time derivative of vind (axial) at blade 1, node 1, m/s/s
        146    0.000000000000E+000                                                     T               2         AD First time derivative of vind (tangential) at blade 1, node 1, m/s/s
        147    0.000000000000E+000                                                     T               2         AD First time derivative of vind (axial) at blade 1, node 2, m/s/s
        148    0.000000000000E+000                                                     T               2         AD First time derivative of vind (tangential) at blade 1, node 2, m/s/s
        149    0.000000000000E+000                                                     T               2         AD First time derivative of vind (axial) at blade 1, node 3, m/s/s
        150    0.000000000000E+000                                                     T               2         AD First time derivative of vind (tangential) at blade 1, node 3, m/s/s
        151    0.000000000000E+000                                                     T               2         AD First time derivative of vind (axial) at blade 1, node 4, m/s/s
        152    0.000000000000E+000                                                     T               2         AD First time derivative of vind (tangential) at blade 1, node 4, m/s/s
        153   -8.085611462593E-001                                                     T               2         AD First time derivative of vind (axial) at blade 1, node 5, m/s/s
        154    3.811385929585E-001                                                     T               2         AD First time derivative of vind (tangential) at blade 1, node 5, m/s/s
        155   -8.723599314690E-001                                                     T               2         AD First time derivative of vind (axial) at blade 1, node 6, m/s/s
        156    3.065899312496E-001                                                     T               2         AD First time derivative of vind (tangential) at blade 1, node 6, m/s/s
        157   -7.997236847878E-001                                                     T               2         AD First time derivative of vind (axial) at blade 1, node 7, m/s/s
        158    2.343917489052E-001                                                     T               2         AD First time derivative of vind (tangential) at blade 1, node 7, m/s/s
        159   -7.937176227570E-001                                                     T               2         AD First time derivative of vind (axial) at blade 1, node 8, m/s/s
        160    1.950194388628E-001                                                     T               2         AD First time derivative of vind (tangential) at blade 1, node 8, m/s/s
        161   -8.878684639931E-001                                                     T               2         AD First time derivative of vind (axial) at blade 1, node 9, m/s/s
        162    1.796629279852E-001                                                     T               2         AD First time derivative of vind (tangential) at blade 1, node 9, m/s/s
        163   -9.171431064606E-001                                                     T               2         AD First time derivative of vind (axial) at blade 1, node 10, m/s/s
        164    1.602831333876E-001                                                     T               2         AD First time derivative of vind (tangential) at blade 1, node 10, m/s/s
        165   -1.029843211174E+000                                                     T               2         AD First time derivative of vind (axial) at blade 1, node 11, m/s/s
        166    1.518209874630E-001                                                     T               2         AD First time derivative of vind (tangential) at blade 1, node 11, m/s/s
        167   -1.110139250755E+000                                                     T               2         AD First time derivative of vind (axial) at blade 1, node 12, m/s/s
        168    1.415184140205E-001                                                     T               2         AD First time derivative of vind (tangential) at blade 1, node 12, m/s/s
        169   -1.052238583565E+000                                                     T               2         AD First time derivative of vind (axial) at blade 1, node 13, m/s/s
        170    1.250429749489E-001                                                     T               2         AD First time derivative of vind (tangential) at blade 1, node 13, m/s/s