
Linearized model: Predictions were generated on 27-Jun-2025 at 00:14:31 using OpenFAST, compiled on Jun 19 2025 at 03:54:01 as a 64-bit application using single precision at commit v4.1.0
 linked with  NWTC Subroutine Library; ElastoDyn; InflowWind; AeroDyn; ServoDyn

Description from the FAST input file: NREL 5.0 MW Baseline Wind Turbine (Onshore), Linearization with AeroDyn + ED

Simulation information:
   Simulation time:                    10.0000 s
   Rotor Speed:                         1.2399 rad/s
   Azimuth:                             5.2011 rad
   Wind Speed:                          8.0000 m/s
   Number of continuous states:       258
   Number of discrete states:           0
   Number of constraint states:         0
   Number of inputs:                   69
   Number of outputs:                   5
   Jacobians included in this file?    No

Order of continuous states:
   Row/Column Operating Point                                                   Rotating Frame? Derivative Order Description
   ---------- ---------------                                                   --------------- ---------------- -----------
          1    2.454516440630E-001                                                     F               2         ED 1st tower fore-aft bending mode DOF (internal DOF index = DOF_TFA1), m
          2    2.190140634775E-002                                                     F               2         ED 1st tower side-to-side bending mode DOF (internal DOF index = DOF_TSS1), m
          3   -5.630316809402E-005                                                     F               2         ED 2nd tower fore-aft bending mode DOF (internal DOF index = DOF_TFA2), m
          4    1.037799738697E-004                                                     F               2         ED 2nd tower side-to-side bending mode DOF (internal DOF index = DOF_TSS2), m
          5    3.628643751144E+000                                                     F               2         ED Variable speed generator DOF (internal DOF index = DOF_GeAz), rad
          6    1.656628912315E-003                                                     F               2         ED Drivetrain rotational-flexibility DOF (internal DOF index = DOF_DrTr), rad
          7    3.462213754654E+000                                                     T               2         ED 1st flapwise bending-mode DOF of blade 1 (internal DOF index = DOF_BF(1,1)), m
          8    3.698915719986E+000                                                     T               2         ED 1st flapwise bending-mode DOF of blade 2 (internal DOF index = DOF_BF(2,1)), m
          9    3.702922582626E+000                                                     T               2         ED 1st flapwise bending-mode DOF of blade 3 (internal DOF index = DOF_BF(3,1)), m
         10    5.249525904655E-001                                                     T               2         ED 1st edgewise bending-mode DOF of blade 1 (internal DOF index = DOF_BE(1,1)), m
         11   -2.045254707336E-001                                                     T               2         ED 1st edgewise bending-mode DOF of blade 2 (internal DOF index = DOF_BE(2,1)), m
         12    8.781605213881E-002                                                     T               2         ED 1st edgewise bending-mode DOF of blade 3 (internal DOF index = DOF_BE(3,1)), m
         13    1.194342002273E-001                                                     T               2         ED 2nd flapwise bending-mode DOF of blade 1 (internal DOF index = DOF_BF(1,2)), m
         14    2.547129057348E-002                                                     T               2         ED 2nd flapwise bending-mode DOF of blade 2 (internal DOF index = DOF_BF(2,2)), m
         15    6.960569322109E-002                                                     T               2         ED 2nd flapwise bending-mode DOF of blade 3 (internal DOF index = DOF_BF(3,2)), m
         16    9.128135442734E-002                                                     F               2         ED First time derivative of 1st tower fore-aft bending mode DOF (internal DOF index = DOF_TFA1), m/s
         17   -7.274147588760E-003                                                     F               2         ED First time derivative of 1st tower side-to-side bending mode DOF (internal DOF index = DOF_TSS1), m/s
         18   -5.950505874353E-005                                                     F               2         ED First time derivative of 2nd tower fore-aft bending mode DOF (internal DOF index = DOF_TFA2), m/s
         19    7.933997949294E-006                                                     F               2         ED First time derivative of 2nd tower side-to-side bending mode DOF (internal DOF index = DOF_TSS2), m/s
         20    1.239847183228E+000                                                     F               2         ED First time derivative of Variable speed generator DOF (internal DOF index = DOF_GeAz), rad/s
         21    3.110969555564E-005                                                     F               2         ED First time derivative of Drivetrain rotational-flexibility DOF (internal DOF index = DOF_DrTr), rad/s
         22    9.736125916243E-002                                                     T               2         ED First time derivative of 1st flapwise bending-mode DOF of blade 1 (internal DOF index = DOF_BF(1,1)), m/s
         23    2.093797177076E-002                                                     T               2         ED First time derivative of 1st flapwise bending-mode DOF of blade 2 (internal DOF index = DOF_BF(2,1)), m/s
         24   -4.500416517258E-001                                                     T               2         ED First time derivative of 1st flapwise bending-mode DOF of blade 3 (internal DOF index = DOF_BF(3,1)), m/s
         25   -1.913422644138E-001                                                     T               2         ED First time derivative of 1st edgewise bending-mode DOF of blade 1 (internal DOF index = DOF_BE(1,1)), m/s
         26   -1.595515608788E-001                                                     T               2         ED First time derivative of 1st edgewise bending-mode DOF of blade 2 (internal DOF index = DOF_BE(2,1)), m/s
         27    3.611877560616E-001                                                     T               2         ED First time derivative of 1st edgewise bending-mode DOF of blade 3 (internal DOF index = DOF_BE(3,1)), m/s
         28   -4.017242789268E-002                                                     T               2         ED First time derivative of 2nd flapwise bending-mode DOF of blade 1 (internal DOF index = DOF_BF(1,2)), m/s
         29   -6.485561281443E-002                                                     T               2         ED First time derivative of 2nd flapwise bending-mode DOF of blade 2 (internal DOF index = DOF_BF(2,2)), m/s
         30    3.618668019772E-001                                                     T               2         ED First time derivative of 2nd flapwise bending-mode DOF of blade 3 (internal DOF index = DOF_BF(3,2)), m/s
         31   -7.678782463074E+000                                                     T               2         AD vind (axial) at blade 1, node 1, m/s
         32    0.000000000000E+000                                                     T               2         AD vind (tangential) at blade 1, node 1, m/s
         33    0.000000000000E+000                                                     T               2         AD vind (axial) at blade 1, node 2, m/s
         34    0.000000000000E+000                                                     T               2         AD vind (tangential) at blade 1, node 2, m/s
         35    0.000000000000E+000                                                     T               2         AD vind (axial) at blade 1, node 3, m/s
         36    0.000000000000E+000                                                     T               2         AD vind (tangential) at blade 1, node 3, m/s
         37    0.000000000000E+000                                                     T               2         AD vind (axial) at blade 1, node 4, m/s
         38    0.000000000000E+000                                                     T               2         AD vind (tangential) at blade 1, node 4, m/s
         39   -2.209172487259E+000                                                     T               2         AD vind (axial) at blade 1, node 5, m/s
         40    8.562406301498E-001                                                     T               2         AD vind (tangential) at blade 1, node 5, m/s
         41   -2.130615234375E+000                                                     T               2         AD vind (axial) at blade 1, node 6, m/s
         42    6.395457983017E-001                                                     T               2         AD vind (tangential) at blade 1, node 6, m/s
         43   -1.917241573334E+000                                                     T               2         AD vind (axial) at blade 1, node 7, m/s
         44    4.802339076996E-001                                                     T               2         AD vind (tangential) at blade 1, node 7, m/s
         45   -1.939965009689E+000                                                     T               2         AD vind (axial) at blade 1, node 8, m/s
         46    4.034054577351E-001                                                     T               2         AD vind (tangential) at blade 1, node 8, m/s
         47   -2.301572322845E+000                                                     T               2         AD vind (axial) at blade 1, node 9, m/s
         48    3.843829631805E-001                                                     T               2         AD vind (tangential) at blade 1, node 9, m/s
         49   -2.449126243591E+000                                                     T               2         AD vind (axial) at blade 1, node 10, m/s
         50    3.475888371468E-001                                                     T               2         AD vind (tangential) at blade 1, node 10, m/s
         51   -2.942774057388E+000                                                     T               2         AD vind (axial) at blade 1, node 11, m/s
         52    3.363461196423E-001                                                     T               2         AD vind (tangential) at blade 1, node 11, m/s
         53   -3.324162006378E+000                                                     T               2         AD vind (axial) at blade 1, node 12, m/s
         54    3.154454529285E-001                                                     T               2         AD vind (tangential) at blade 1, node 12, m/s
         55   -3.254939079285E+000                                                     T               2         AD vind (axial) at blade 1, node 13, m/s
         56    2.830248177052E-001                                                     T               2         AD vind (tangential) at blade 1, node 13, m/s
         57   -3.505484342575E+000                                                     T               2         AD vind (axial) at blade 1, node 14, m/s
         58    2.658171057701E-001                                                     T               2         AD vind (tangential) at blade 1, node 14, m/s
         59   -3.765513181686E+000                                                     T               2         AD vind (axial) at blade 1, node 15, m/s
         60    2.522836923599E-001                                                     T               2         AD vind (tangential) at blade 1, node 15, m/s
         61   -4.022710323334E+000                                                     T               2         AD vind (axial) at blade 1, node 16, m/s
         62    2.446092218161E-001                                                     T               2         AD vind (tangential) at blade 1, node 16, m/s
         63   -4.226589679718E+000                                                     T               2         AD vind (axial) at blade 1, node 17, m/s
         64    2.410748600960E-001                                                     T               2         AD vind (tangential) at blade 1, node 17, m/s
         65   -4.151505470276E+000                                                     T               2         AD vind (axial) at blade 1, node 18, m/s
         66    2.358022779226E-001                                                     T               2         AD vind (tangential) at blade 1, node 18, m/s
         67   -7.862110614777E+000                                                     T               2         AD vind (axial) at blade 1, node 19, m/s
         68    0.000000000000E+000                                                     T               2         AD vind (tangential) at blade 1, node 19, m/s
         69   -7.806757926941E+000                                                     T               2         AD vind (axial) at blade 2, node 1, m/s
         70    0.000000000000E+000                                                     T               2         AD vind (tangential) at blade 2, node 1, m/s
         71    0.000000000000E+000                                                     T               2         AD vind (axial) at blade 2, node 2, m/s
         72    0.000000000000E+000                                                     T               2         AD vind (tangential) at blade 2, node 2, m/s
         73    0.000000000000E+000                                                     T               2         AD vind (axial) at blade 2, node 3, m/s
         74    0.000000000000E+000                                                     T               2         AD vind (tangential) at blade 2, node 3, m/s
         75    0.000000000000E+000                                                     T               2         AD vind (axial) at blade 2, node 4, m/s
         76    0.000000000000E+000                                                     T               2         AD vind (tangential) at blade 2, node 4, m/s
         77   -2.217131614685E+000                                                     T               2         AD vind (axial) at blade 2, node 5, m/s
         78    8.611731529236E-001                                                     T               2         AD vind (tangential) at blade 2, node 5, m/s
         79   -2.137823104858E+000                                                     T               2         AD vind (axial) at blade 2, node 6, m/s
         80    6.426550149918E-001                                                     T               2         AD vind (tangential) at blade 2, node 6, m/s
         81   -1.922514557838E+000                                                     T               2         AD vind (axial) at blade 2, node 7, m/s
         82    4.820903539658E-001                                                     T               2         AD vind (tangential) at blade 2, node 7, m/s
         83   -1.944055080414E+000                                                     T               2         AD vind (axial) at blade 2, node 8, m/s
         84    4.045678675175E-001                                                     T               2         AD vind (tangential) at blade 2, node 8, m/s
         85   -2.305069923401E+000                                                     T               2         AD vind (axial) at blade 2, node 9, m/s
         86    3.851081430912E-001                                                     T               2         AD vind (tangential) at blade 2, node 9, m/s
         87   -2.452045679092E+000                                                     T               2         AD vind (axial) at blade 2, node 10, m/s
         88    3.479554355145E-001                                                     T               2         AD vind (tangential) at blade 2, node 10, m/s
         89   -2.946316480637E+000                                                     T               2         AD vind (axial) at blade 2, node 11, m/s
         90    3.364358842373E-001                                                     T               2         AD vind (tangential) at blade 2, node 11, m/s
         91   -3.328572511673E+000                                                     T               2         AD vind (axial) at blade 2, node 12, m/s
         92    3.152177929878E-001                                                     T               2         AD vind (tangential) at blade 2, node 12, m/s
         93   -3.260599851608E+000                                                     T               2         AD vind (axial) at blade 2, node 13, m/s
         94    2.825351357460E-001                                                     T               2         AD vind (tangential) at blade 2, node 13, m/s
         95   -3.511449098587E+000                                                     T               2         AD vind (axial) at blade 2, node 14, m/s
         96    2.651448845863E-001                                                     T               2         AD vind (tangential) at blade 2, node 14, m/s
         97   -3.772423267365E+000                                                     T               2         AD vind (axial) at blade 2, node 15, m/s
         98    2.514103055000E-001                                                     T               2         AD vind (tangential) at blade 2, node 15, m/s
         99   -4.026745319366E+000                                                     T               2         AD vind (axial) at blade 2, node 16, m/s
        100    2.436589002609E-001                                                     T               2         AD vind (tangential) at blade 2, node 16, m/s
        101   -4.225775241852E+000                                                     T               2         AD vind (axial) at blade 2, node 17, m/s
        102    2.400250583887E-001                                                     T               2         AD vind (tangential) at blade 2, node 17, m/s
        103   -4.145824432373E+000                                                     T               2         AD vind (axial) at blade 2, node 18, m/s
        104    2.346564233303E-001                                                     T               2         AD vind (tangential) at blade 2, node 18, m/s
        105   -7.855247020721E+000                                                     T               2         AD vind (axial) at blade 2, node 19, m/s
        106    0.000000000000E+000                                                     T               2         AD vind (tangential) at blade 2, node 19, m/s
        107   -7.682597160339E+000                                                     T               2         AD vind (axial) at blade 3, node 1, m/s
        108    0.000000000000E+000                                                     T               2         AD vind (tangential) at blade 3, node 1, m/s
        109    0.000000000000E+000                                                     T               2         AD vind (axial) at blade 3, node 2, m/s
        110    0.000000000000E+000                                                     T               2         AD vind (tangential) at blade 3, node 2, m/s
        111    0.000000000000E+000                                                     T               2         AD vind (axial) at blade 3, node 3, m/s
        112    0.000000000000E+000                                                     T               2         AD vind (tangential) at blade 3, node 3, m/s
        113    0.000000000000E+000                                                     T               2         AD vind (axial) at blade 3, node 4, m/s
        114    0.000000000000E+000                                                     T               2         AD vind (tangential) at blade 3, node 4, m/s
        115   -2.200202226639E+000                                                     T               2         AD vind (axial) at blade 3, node 5, m/s
        116    8.480461835861E-001                                                     T               2         AD vind (tangential) at blade 3, node 5, m/s
        117   -2.124553203583E+000                                                     T               2         AD vind (axial) at blade 3, node 6, m/s
        118    6.358228325844E-001                                                     T               2         AD vind (tangential) at blade 3, node 6, m/s
        119   -1.913708209991E+000                                                     T               2         AD vind (axial) at blade 3, node 7, m/s
        120    4.785881638527E-001                                                     T               2         AD vind (tangential) at blade 3, node 7, m/s
        121   -1.939156889915E+000                                                     T               2         AD vind (axial) at blade 3, node 8, m/s
        122    4.028826951981E-001                                                     T               2         AD vind (tangential) at blade 3, node 8, m/s
        123   -2.303152561188E+000                                                     T               2         AD vind (axial) at blade 3, node 9, m/s
        124    3.844706416130E-001                                                     T               2         AD vind (tangential) at blade 3, node 9, m/s
        125   -2.451009035110E+000                                                     T               2         AD vind (axial) at blade 3, node 10, m/s
        126    3.479152619839E-001                                                     T               2         AD vind (tangential) at blade 3, node 10, m/s
        127   -2.944181203842E+000                                                     T               2         AD vind (axial) at blade 3, node 11, m/s
        128    3.367993831635E-001                                                     T               2         AD vind (tangential) at blade 3, node 11, m/s
        129   -3.322934389114E+000                                                     T               2         AD vind (axial) at blade 3, node 12, m/s
        130    3.158169686794E-001                                                     T               2         AD vind (tangential) at blade 3, node 12, m/s
        131   -3.249533414841E+000                                                     T               2         AD vind (axial) at blade 3, node 13, m/s
        132    2.831861376762E-001                                                     T               2         AD vind (tangential) at blade 3, node 13, m/s
        133   -3.495858430862E+000                                                     T               2         AD vind (axial) at blade 3, node 14, m/s
        134    2.656988799572E-001                                                     T               2         AD vind (tangential) at blade 3, node 14, m/s
        135   -3.751420974731E+000                                                     T               2         AD vind (axial) at blade 3, node 15, m/s
        136    2.518790364265E-001                                                     T               2         AD vind (tangential) at blade 3, node 15, m/s
        137   -4.005882740021E+000                                                     T               2         AD vind (axial) at blade 3, node 16, m/s
        138    2.440094947815E-001                                                     T               2         AD vind (tangential) at blade 3, node 16, m/s
        139   -4.209511280060E+000                                                     T               2         AD vind (axial) at blade 3, node 17, m/s
        140    2.403868138790E-001                                                     T               2         AD vind (tangential) at blade 3, node 17, m/s
        141   -4.136741638184E+000                                                     T               2         AD vind (axial) at blade 3, node 18, m/s
        142    2.350748181343E-001                                                     T               2         AD vind (tangential) at blade 3, node 18, m/s
        143   -7.863953590393E+000                                                     T               2         AD vind (axial) at blade 3, node 19, m/s
        144    0.000000000000E+000                                                     T               2         AD vind (tangential) at blade 3, node 19, m/s
        145   -3.076629638672E+000                                                     T               2         AD First time derivative of vind (axial) at blade 1, node 1, m/s/s
        146    0.000000000000E+000                                                     T               2         AD First time derivative of vind (tangential) at blade 1, node 1, m/s/s
        147    0.000000000000E+000                                                     T               2         AD First time derivative of vind (axial) at blade 1, node 2, m/s/s
        148    0.000000000000E+000                                                     T               2         AD First time derivative of vind (tangential) at blade 1, node 2, m/s/s
        149    0.000000000000E+000                                                     T               2         AD First time derivative of vind (axial) at blade 1, node 3, m/s/s
        150    0.000000000000E+000                                                     T               2         AD First time derivative of vind (tangential) at blade 1, node 3, m/s/s
        151    0.000000000000E+000                                                     T               2         AD First time derivative of vind (axial) at blade 1, node 4, m/s/s
        152    0.000000000000E+000                                                     T               2         AD First time derivative of vind (tangential) at blade 1, node 4, m/s/s
        153   -8.797346949577E-001                                                     T               2         AD First time derivative of vind (axial) at blade 1, node 5, m/s/s
        154    3.458506762981E-001                                                     T               2         AD First time derivative of vind (tangential) at blade 1, node 5, m/s/s
        155   -8.543822765350E-001                                                     T               2         AD First time derivative of vind (axial) at blade 1, node 6, m/s/s
        156    2.598645985126E-001                                                     T               2         AD First time derivative of vind (tangential) at blade 1, node 6, m/s/s
        157   -7.702564597130E-001                                                     T               2         AD First time derivative of vind (axial) at blade 1, node 7, m/s/s
        158    1.956322938204E-001                                                     T               2         AD First time derivative of vind (tangential) at blade 1, node 7, m/s/s
        159   -7.780473828316E-001                                                     T               2         AD First time derivative of vind (axial) at blade 1, node 8, m/s/s
        160    1.642860919237E-001                                                     T               2         AD First time derivative of vind (tangential) at blade 1, node 8, m/s/s
        161   -9.178911447525E-001                                                     T               2         AD First time derivative of vind (axial) at blade 1, node 9, m/s/s
        162    1.560776829720E-001                                                     T               2         AD First time derivative of vind (tangential) at blade 1, node 9, m/s/s
        163   -9.735046625137E-001                                                     T               2         AD First time derivative of vind (axial) at blade 1, node 10, m/s/s
        164    1.409841477871E-001                                                     T               2         AD First time derivative of vind (tangential) at blade 1, node 10, m/s/s
        165   -1.161122322083E+000                                                     T               2         AD First time derivative of vind (axial) at blade 1, node 11, m/s/s
        166    1.361482292414E-001                                                     T               2         AD First time derivative of vind (tangential) at blade 1, node 11, m/s/s
        167   -1.304516553879E+000                                                     T               2         AD First time derivative of vind (axial) at blade 1, node 12, m/s/s
        168    1.275870651007E-001                                                     T               2         AD First time derivative of vind (tangential) at blade 1, node 12, m/s/s
        169   -1.270772576332E+000                                                     T               2         AD First time derivative of vind (axial) at blade 1, node 13, m/s/s
        170    1.142561659217E-001                                                     T               2         AD First time derivative of vind (tangential) at blade 1, node 13, m/s/s