
Linearized model: Predictions were generated on 27-Jun-2025 at 00:03:32 using OpenFAST, compiled on Jun 19 2025 at 03:54:01 as a 64-bit application using single precision at commit v4.1.0
 linked with  NWTC Subroutine Library; ElastoDyn; InflowWind; AeroDyn; ServoDyn

Description from the FAST input file: NREL 5.0 MW Baseline Wind Turbine (Onshore), Linearization with AeroDyn + ED

Simulation information:
   Simulation time:                   410.6400 s
   Rotor Speed:                         1.0001 rad/s
   Azimuth:                             4.1957 rad
   Wind Speed:                          8.0000 m/s
   Number of continuous states:       258
   Number of discrete states:           0
   Number of constraint states:         0
   Number of inputs:                   69
   Number of outputs:                   5
   Jacobians included in this file?    No

Order of continuous states:
   Row/Column Operating Point                                                   Rotating Frame? Derivative Order Description
   ---------- ---------------                                                   --------------- ---------------- -----------
          1    2.082245349884E-001                                                     F               2         ED 1st tower fore-aft bending mode DOF (internal DOF index = DOF_TFA1), m
          2    2.180274389684E-002                                                     F               2         ED 1st tower side-to-side bending mode DOF (internal DOF index = DOF_TSS1), m
          3   -7.291796646314E-005                                                     F               2         ED 2nd tower fore-aft bending mode DOF (internal DOF index = DOF_TFA2), m
          4    1.406913652318E-004                                                     F               2         ED 2nd tower side-to-side bending mode DOF (internal DOF index = DOF_TSS2), m
          5    2.622693061829E+000                                                     F               2         ED Variable speed generator DOF (internal DOF index = DOF_GeAz), rad
          6    2.179929753765E-003                                                     F               2         ED Drivetrain rotational-flexibility DOF (internal DOF index = DOF_DrTr), rad
          7    3.050019502640E+000                                                     T               2         ED 1st flapwise bending-mode DOF of blade 1 (internal DOF index = DOF_BF(1,1)), m
          8    3.176750183105E+000                                                     T               2         ED 1st flapwise bending-mode DOF of blade 2 (internal DOF index = DOF_BF(2,1)), m
          9    3.351149082184E+000                                                     T               2         ED 1st flapwise bending-mode DOF of blade 3 (internal DOF index = DOF_BF(3,1)), m
         10    4.956206977367E-001                                                     T               2         ED 1st edgewise bending-mode DOF of blade 1 (internal DOF index = DOF_BE(1,1)), m
         11    8.234168589115E-002                                                     T               2         ED 1st edgewise bending-mode DOF of blade 2 (internal DOF index = DOF_BE(2,1)), m
         12   -3.108976185322E-001                                                     T               2         ED 1st edgewise bending-mode DOF of blade 3 (internal DOF index = DOF_BE(3,1)), m
         13    8.513740450144E-002                                                     T               2         ED 2nd flapwise bending-mode DOF of blade 1 (internal DOF index = DOF_BF(1,2)), m
         14    5.566532909870E-002                                                     T               2         ED 2nd flapwise bending-mode DOF of blade 2 (internal DOF index = DOF_BF(2,2)), m
         15   -8.503623306751E-003                                                     T               2         ED 2nd flapwise bending-mode DOF of blade 3 (internal DOF index = DOF_BF(3,2)), m
         16    1.218161269207E-004                                                     F               2         ED First time derivative of 1st tower fore-aft bending mode DOF (internal DOF index = DOF_TFA1), m/s
         17   -8.829821599647E-004                                                     F               2         ED First time derivative of 1st tower side-to-side bending mode DOF (internal DOF index = DOF_TSS1), m/s
         18   -2.098727418343E-005                                                     F               2         ED First time derivative of 2nd tower fore-aft bending mode DOF (internal DOF index = DOF_TFA2), m/s
         19   -4.072682349943E-005                                                     F               2         ED First time derivative of 2nd tower side-to-side bending mode DOF (internal DOF index = DOF_TSS2), m/s
         20    1.000275015831E+000                                                     F               2         ED First time derivative of Variable speed generator DOF (internal DOF index = DOF_GeAz), rad/s
         21   -1.484673848609E-004                                                     F               2         ED First time derivative of Drivetrain rotational-flexibility DOF (internal DOF index = DOF_DrTr), rad/s
         22   -1.298373937607E-001                                                     T               2         ED First time derivative of 1st flapwise bending-mode DOF of blade 1 (internal DOF index = DOF_BF(1,1)), m/s
         23    2.046090811491E-001                                                     T               2         ED First time derivative of 1st flapwise bending-mode DOF of blade 2 (internal DOF index = DOF_BF(2,1)), m/s
         24   -1.073143035173E-001                                                     T               2         ED First time derivative of 1st flapwise bending-mode DOF of blade 3 (internal DOF index = DOF_BF(3,1)), m/s
         25    2.415659874678E-001                                                     T               2         ED First time derivative of 1st edgewise bending-mode DOF of blade 1 (internal DOF index = DOF_BE(1,1)), m/s
         26   -5.008234381676E-001                                                     T               2         ED First time derivative of 1st edgewise bending-mode DOF of blade 2 (internal DOF index = DOF_BE(2,1)), m/s
         27    2.754409909248E-001                                                     T               2         ED First time derivative of 1st edgewise bending-mode DOF of blade 3 (internal DOF index = DOF_BE(3,1)), m/s
         28    8.931694179773E-002                                                     T               2         ED First time derivative of 2nd flapwise bending-mode DOF of blade 1 (internal DOF index = DOF_BF(1,2)), m/s
         29   -6.264960765839E-002                                                     T               2         ED First time derivative of 2nd flapwise bending-mode DOF of blade 2 (internal DOF index = DOF_BF(2,2)), m/s
         30    2.148535102606E-002                                                     T               2         ED First time derivative of 2nd flapwise bending-mode DOF of blade 3 (internal DOF index = DOF_BF(3,2)), m/s
         31   -7.544765472412E+000                                                     T               2         AD vind (axial) at blade 1, node 1, m/s
         32    0.000000000000E+000                                                     T               2         AD vind (tangential) at blade 1, node 1, m/s
         33    0.000000000000E+000                                                     T               2         AD vind (axial) at blade 1, node 2, m/s
         34    0.000000000000E+000                                                     T               2         AD vind (tangential) at blade 1, node 2, m/s
         35    0.000000000000E+000                                                     T               2         AD vind (axial) at blade 1, node 3, m/s
         36    0.000000000000E+000                                                     T               2         AD vind (tangential) at blade 1, node 3, m/s
         37    0.000000000000E+000                                                     T               2         AD vind (axial) at blade 1, node 4, m/s
         38    0.000000000000E+000                                                     T               2         AD vind (tangential) at blade 1, node 4, m/s
         39   -2.005859136581E+000                                                     T               2         AD vind (axial) at blade 1, node 5, m/s
         40    9.398778080940E-001                                                     T               2         AD vind (tangential) at blade 1, node 5, m/s
         41   -2.165461301804E+000                                                     T               2         AD vind (axial) at blade 1, node 6, m/s
         42    7.595573663712E-001                                                     T               2         AD vind (tangential) at blade 1, node 6, m/s
         43   -1.989506125450E+000                                                     T               2         AD vind (axial) at blade 1, node 7, m/s
         44    5.826777815819E-001                                                     T               2         AD vind (tangential) at blade 1, node 7, m/s
         45   -1.977985620499E+000                                                     T               2         AD vind (axial) at blade 1, node 8, m/s
         46    4.860667288303E-001                                                     T               2         AD vind (tangential) at blade 1, node 8, m/s
         47   -2.214473724365E+000                                                     T               2         AD vind (axial) at blade 1, node 9, m/s
         48    4.485818147659E-001                                                     T               2         AD vind (tangential) at blade 1, node 9, m/s
         49   -2.288572549820E+000                                                     T               2         AD vind (axial) at blade 1, node 10, m/s
         50    4.008070826530E-001                                                     T               2         AD vind (tangential) at blade 1, node 10, m/s
         51   -2.568873882294E+000                                                     T               2         AD vind (axial) at blade 1, node 11, m/s
         52    3.800549805164E-001                                                     T               2         AD vind (tangential) at blade 1, node 11, m/s
         53   -2.767343044281E+000                                                     T               2         AD vind (axial) at blade 1, node 12, m/s
         54    3.546377420425E-001                                                     T               2         AD vind (tangential) at blade 1, node 12, m/s
         55   -2.621997356415E+000                                                     T               2         AD vind (axial) at blade 1, node 13, m/s
         56    3.136351108551E-001                                                     T               2         AD vind (tangential) at blade 1, node 13, m/s
         57   -2.733958005905E+000                                                     T               2         AD vind (axial) at blade 1, node 14, m/s
         58    2.928213477135E-001                                                     T               2         AD vind (tangential) at blade 1, node 14, m/s
         59   -2.892637491226E+000                                                     T               2         AD vind (axial) at blade 1, node 15, m/s
         60    2.765589952469E-001                                                     T               2         AD vind (tangential) at blade 1, node 15, m/s
         61   -3.147722721100E+000                                                     T               2         AD vind (axial) at blade 1, node 16, m/s
         62    2.680408358574E-001                                                     T               2         AD vind (tangential) at blade 1, node 16, m/s
         63   -3.462921857834E+000                                                     T               2         AD vind (axial) at blade 1, node 17, m/s
         64    2.651388645172E-001                                                     T               2         AD vind (tangential) at blade 1, node 17, m/s
         65   -3.614119529724E+000                                                     T               2         AD vind (axial) at blade 1, node 18, m/s
         66    2.610571980476E-001                                                     T               2         AD vind (tangential) at blade 1, node 18, m/s
         67   -7.910331249237E+000                                                     T               2         AD vind (axial) at blade 1, node 19, m/s
         68    0.000000000000E+000                                                     T               2         AD vind (tangential) at blade 1, node 19, m/s
         69   -7.783119201660E+000                                                     T               2         AD vind (axial) at blade 2, node 1, m/s
         70    0.000000000000E+000                                                     T               2         AD vind (tangential) at blade 2, node 1, m/s
         71    0.000000000000E+000                                                     T               2         AD vind (axial) at blade 2, node 2, m/s
         72    0.000000000000E+000                                                     T               2         AD vind (tangential) at blade 2, node 2, m/s
         73    0.000000000000E+000                                                     T               2         AD vind (axial) at blade 2, node 3, m/s
         74    0.000000000000E+000                                                     T               2         AD vind (tangential) at blade 2, node 3, m/s
         75    0.000000000000E+000                                                     T               2         AD vind (axial) at blade 2, node 4, m/s
         76    0.000000000000E+000                                                     T               2         AD vind (tangential) at blade 2, node 4, m/s
         77   -2.014838933945E+000                                                     T               2         AD vind (axial) at blade 2, node 5, m/s
         78    9.497256278992E-001                                                     T               2         AD vind (tangential) at blade 2, node 5, m/s
         79   -2.176645040512E+000                                                     T               2         AD vind (axial) at blade 2, node 6, m/s
         80    7.649871706963E-001                                                     T               2         AD vind (tangential) at blade 2, node 6, m/s
         81   -1.996921658516E+000                                                     T               2         AD vind (axial) at blade 2, node 7, m/s
         82    5.853278040886E-001                                                     T               2         AD vind (tangential) at blade 2, node 7, m/s
         83   -1.983099460602E+000                                                     T               2         AD vind (axial) at blade 2, node 8, m/s
         84    4.873277544975E-001                                                     T               2         AD vind (tangential) at blade 2, node 8, m/s
         85   -2.219239234924E+000                                                     T               2         AD vind (axial) at blade 2, node 9, m/s
         86    4.491606354713E-001                                                     T               2         AD vind (tangential) at blade 2, node 9, m/s
         87   -2.293486833572E+000                                                     T               2         AD vind (axial) at blade 2, node 10, m/s
         88    4.009080231190E-001                                                     T               2         AD vind (tangential) at blade 2, node 10, m/s
         89   -2.576361417770E+000                                                     T               2         AD vind (axial) at blade 2, node 11, m/s
         90    3.798921406269E-001                                                     T               2         AD vind (tangential) at blade 2, node 11, m/s
         91   -2.778789758682E+000                                                     T               2         AD vind (axial) at blade 2, node 12, m/s
         92    3.542701303959E-001                                                     T               2         AD vind (tangential) at blade 2, node 12, m/s
         93   -2.635701656342E+000                                                     T               2         AD vind (axial) at blade 2, node 13, m/s
         94    3.132018744946E-001                                                     T               2         AD vind (tangential) at blade 2, node 13, m/s
         95   -2.752365589142E+000                                                     T               2         AD vind (axial) at blade 2, node 14, m/s
         96    2.923147976398E-001                                                     T               2         AD vind (tangential) at blade 2, node 14, m/s
         97   -2.916466236115E+000                                                     T               2         AD vind (axial) at blade 2, node 15, m/s
         98    2.759245336056E-001                                                     T               2         AD vind (tangential) at blade 2, node 15, m/s
         99   -3.177942514420E+000                                                     T               2         AD vind (axial) at blade 2, node 16, m/s
        100    2.671267092228E-001                                                     T               2         AD vind (tangential) at blade 2, node 16, m/s
        101   -3.493308782578E+000                                                     T               2         AD vind (axial) at blade 2, node 17, m/s
        102    2.641106843948E-001                                                     T               2         AD vind (tangential) at blade 2, node 17, m/s
        103   -3.639781951904E+000                                                     T               2         AD vind (axial) at blade 2, node 18, m/s
        104    2.601478695869E-001                                                     T               2         AD vind (tangential) at blade 2, node 18, m/s
        105   -7.920264244080E+000                                                     T               2         AD vind (axial) at blade 2, node 19, m/s
        106    0.000000000000E+000                                                     T               2         AD vind (tangential) at blade 2, node 19, m/s
        107   -7.867127418518E+000                                                     T               2         AD vind (axial) at blade 3, node 1, m/s
        108    0.000000000000E+000                                                     T               2         AD vind (tangential) at blade 3, node 1, m/s
        109    0.000000000000E+000                                                     T               2         AD vind (axial) at blade 3, node 2, m/s
        110    0.000000000000E+000                                                     T               2         AD vind (tangential) at blade 3, node 2, m/s
        111    0.000000000000E+000                                                     T               2         AD vind (axial) at blade 3, node 3, m/s
        112    0.000000000000E+000                                                     T               2         AD vind (tangential) at blade 3, node 3, m/s
        113    0.000000000000E+000                                                     T               2         AD vind (axial) at blade 3, node 4, m/s
        114    0.000000000000E+000                                                     T               2         AD vind (tangential) at blade 3, node 4, m/s
        115   -2.023678064346E+000                                                     T               2         AD vind (axial) at blade 3, node 5, m/s
        116    9.549485445023E-001                                                     T               2         AD vind (tangential) at blade 3, node 5, m/s
        117   -2.183696269989E+000                                                     T               2         AD vind (axial) at blade 3, node 6, m/s
        118    7.678816318512E-001                                                     T               2         AD vind (tangential) at blade 3, node 6, m/s
        119   -2.001254081726E+000                                                     T               2         AD vind (axial) at blade 3, node 7, m/s
        120    5.867869257927E-001                                                     T               2         AD vind (tangential) at blade 3, node 7, m/s
        121   -1.985631346703E+000                                                     T               2         AD vind (axial) at blade 3, node 8, m/s
        122    4.880248606205E-001                                                     T               2         AD vind (tangential) at blade 3, node 8, m/s
        123   -2.220556259155E+000                                                     T               2         AD vind (axial) at blade 3, node 9, m/s
        124    4.494492709637E-001                                                     T               2         AD vind (tangential) at blade 3, node 9, m/s
        125   -2.293273687363E+000                                                     T               2         AD vind (axial) at blade 3, node 10, m/s
        126    4.008612334728E-001                                                     T               2         AD vind (tangential) at blade 3, node 10, m/s
        127   -2.574509382248E+000                                                     T               2         AD vind (axial) at blade 3, node 11, m/s
        128    3.795897066593E-001                                                     T               2         AD vind (tangential) at blade 3, node 11, m/s
        129   -2.774553298950E+000                                                     T               2         AD vind (axial) at blade 3, node 12, m/s
        130    3.537319898605E-001                                                     T               2         AD vind (tangential) at blade 3, node 12, m/s
        131   -2.628939151764E+000                                                     T               2         AD vind (axial) at blade 3, node 13, m/s
        132    3.124348521233E-001                                                     T               2         AD vind (tangential) at blade 3, node 13, m/s
        133   -2.741863965988E+000                                                     T               2         AD vind (axial) at blade 3, node 14, m/s
        134    2.913567423820E-001                                                     T               2         AD vind (tangential) at blade 3, node 14, m/s
        135   -2.901080846786E+000                                                     T               2         AD vind (axial) at blade 3, node 15, m/s
        136    2.748525142670E-001                                                     T               2         AD vind (tangential) at blade 3, node 15, m/s
        137   -3.157146453857E+000                                                     T               2         AD vind (axial) at blade 3, node 16, m/s
        138    2.661013603210E-001                                                     T               2         AD vind (tangential) at blade 3, node 16, m/s
        139   -3.471295356750E+000                                                     T               2         AD vind (axial) at blade 3, node 17, m/s
        140    2.631348669529E-001                                                     T               2         AD vind (tangential) at blade 3, node 17, m/s
        141   -3.619377851486E+000                                                     T               2         AD vind (axial) at blade 3, node 18, m/s
        142    2.593174576759E-001                                                     T               2         AD vind (tangential) at blade 3, node 18, m/s
        143   -7.913574218750E+000                                                     T               2         AD vind (axial) at blade 3, node 19, m/s
        144    0.000000000000E+000                                                     T               2         AD vind (tangential) at blade 3, node 19, m/s
        145   -3.040110588074E+000                                                     T               2         AD First time derivative of vind (axial) at blade 1, node 1, m/s/s
        146    0.000000000000E+000                                                     T               2         AD First time derivative of vind (tangential) at blade 1, node 1, m/s/s
        147    0.000000000000E+000                                                     T               2         AD First time derivative of vind (axial) at blade 1, node 2, m/s/s
        148    0.000000000000E+000                                                     T               2         AD First time derivative of vind (tangential) at blade 1, node 2, m/s/s
        149    0.000000000000E+000                                                     T               2         AD First time derivative of vind (axial) at blade 1, node 3, m/s/s
        150    0.000000000000E+000                                                     T               2         AD First time derivative of vind (tangential) at blade 1, node 3, m/s/s
        151    0.000000000000E+000                                                     T               2         AD First time derivative of vind (axial) at blade 1, node 4, m/s/s
        152    0.000000000000E+000                                                     T               2         AD First time derivative of vind (tangential) at blade 1, node 4, m/s/s
        153   -8.043785095215E-001                                                     T               2         AD First time derivative of vind (axial) at blade 1, node 5, m/s/s
        154    3.766002058983E-001                                                     T               2         AD First time derivative of vind (tangential) at blade 1, node 5, m/s/s
        155   -8.670961856842E-001                                                     T               2         AD First time derivative of vind (axial) at blade 1, node 6, m/s/s
        156    3.039636015892E-001                                                     T               2         AD First time derivative of vind (tangential) at blade 1, node 6, m/s/s
        157   -7.963067293167E-001                                                     T               2         AD First time derivative of vind (axial) at blade 1, node 7, m/s/s
        158    2.330899834633E-001                                                     T               2         AD First time derivative of vind (tangential) at blade 1, node 7, m/s/s
        159   -7.915201187134E-001                                                     T               2         AD First time derivative of vind (axial) at blade 1, node 8, m/s/s
        160    1.943878382444E-001                                                     T               2         AD First time derivative of vind (tangential) at blade 1, node 8, m/s/s
        161   -8.861904144287E-001                                                     T               2         AD First time derivative of vind (axial) at blade 1, node 9, m/s/s
        162    1.793707311153E-001                                                     T               2         AD First time derivative of vind (tangential) at blade 1, node 9, m/s/s
        163   -9.158305525780E-001                                                     T               2         AD First time derivative of vind (axial) at blade 1, node 10, m/s/s
        164    1.602297276258E-001                                                     T               2         AD First time derivative of vind (tangential) at blade 1, node 10, m/s/s
        165   -1.028262734413E+000                                                     T               2         AD First time derivative of vind (axial) at blade 1, node 11, m/s/s
        166    1.519084870815E-001                                                     T               2         AD First time derivative of vind (tangential) at blade 1, node 11, m/s/s
        167   -1.108015060425E+000                                                     T               2         AD First time derivative of vind (axial) at blade 1, node 12, m/s/s
        168    1.417169719934E-001                                                     T               2         AD First time derivative of vind (tangential) at blade 1, node 12, m/s/s
        169   -1.049975991249E+000                                                     T               2         AD First time derivative of vind (axial) at blade 1, node 13, m/s/s
        170    1.253065019846E-001                                                     T               2         AD First time derivative of vind (tangential) at blade 1, node 13, m/s/s