
FAST Summary File

Predictions were generated on 27-Jun-2025 at 00:14:31 using OpenFAST, compiled on Jun 19 2025 at 03:54:01 as a 64-bit application using single precision at commit v4.1.0
  run with
    NWTC Subroutine Library
    ElastoDyn [not called]
    InflowWind
    ElastoDyn
    AeroDyn
    ServoDyn
    Simplified-ElastoDyn (unknown version, unknown date) [not called]
    InflowWind
    AeroDyn
    AeroDisk (unknown version, unknown date) [not called]
    ServoDyn
    HydroDyn (unknown version, unknown date) [not called]
    SubDyn (unknown version, unknown date) [not called]
    ExtPtfm_MCKF (unknown version, unknown date) [not called]
    MAP (unknown version, unknown date) [not called]
    FEAMooring (unknown version, unknown date) [not called]
    MoorDyn (unknown version, unknown date) [not called]
    OrcaFlexInterface (unknown version, unknown date) [not called]
    IceFloe (unknown version, unknown date) [not called]
    IceDyn (unknown version, unknown date) [not called]
Description from the FAST input file: 
  NREL 5.0 MW Baseline Wind Turbine (Onshore), Linearization with AeroDyn + ED

Interpolation order for input/output time histories: 2 (quadratic)
Number of correction iterations:  0


   Requested Time Steps  
  -------------------------------------------------
  Component          Time Step (s)    Subcycles (-)
  -----------------  ---------------  -------------
  FAST (glue code)    1.000000000000E-002
  InflowWind          1.000000000000E-       1
  ElastoDyn           1.000000000000E-       1
  AeroDyn             1.000000000000E-       1
  ServoDyn            1.000000000000E-       1
  FAST output files   1.000000000000E-       1
  VTK output files    1.999999955297E-       2^-1


   Requested Visualization Output
  -------------------------------------------------
         Frame rate   5.000000111759 fps1


   Requested Channels in FAST Output File(s)  
  --------------------------------------------
  Number  Name                  Units                 Generated by
  ------  --------------------  --------------------  ------------
       1  Time                  (s)                   OpenFAST
       2  Wind1VelX             (m/s)                 InflowWind
       3  Wind1VelY             (m/s)                 InflowWind
       4  Wind1VelZ             (m/s)                 InflowWind
       5  GenPwr                (kW)                  ServoDyn
       6  GenTq                 (kN-m)                ServoDyn
