
Linearized model: Predictions were generated on 03-Jul-2025 at 08:56:56 using OpenFAST, compiled on Jun 19 2025 at 03:54:01 as a 64-bit application using single precision at commit v4.1.0
 linked with  NWTC Subroutine Library; ElastoDyn; InflowWind; AeroDyn; ServoDyn

Description from the FAST input file: NREL 5.0 MW Baseline Wind Turbine (Onshore), Linearization with AeroDyn + ED

Simulation information:
   Simulation time:                     1.0000 s
   Rotor Speed:                         1.6238 rad/s
   Azimuth:                             1.5899 rad
   Wind Speed:                         13.0000 m/s
   Number of continuous states:       228
   Number of discrete states:           0
   Number of constraint states:         0
   Number of inputs:                   60
   Number of outputs:                   1
   Jacobians included in this file?    No

Order of continuous states:
   Row/Column Operating Point                                                   Rotating Frame? Derivative Order Description
   ---------- ---------------                                                   --------------- ---------------- -----------
          1   -1.283662605286E+001                                                     T               2         vind (axial) at blade 1, node 1, m/s
          2    0.000000000000E+000                                                     T               2         vind (tangential) at blade 1, node 1, m/s
          3    0.000000000000E+000                                                     T               2         vind (axial) at blade 1, node 2, m/s
          4    0.000000000000E+000                                                     T               2         vind (tangential) at blade 1, node 2, m/s
          5    0.000000000000E+000                                                     T               2         vind (axial) at blade 1, node 3, m/s
          6    0.000000000000E+000                                                     T               2         vind (tangential) at blade 1, node 3, m/s
          7    0.000000000000E+000                                                     T               2         vind (axial) at blade 1, node 4, m/s
          8    0.000000000000E+000                                                     T               2         vind (tangential) at blade 1, node 4, m/s
          9   -3.208302736282E+000                                                     T               2         vind (axial) at blade 1, node 5, m/s
         10    1.559409379959E+000                                                     T               2         vind (tangential) at blade 1, node 5, m/s
         11   -3.537548542023E+000                                                     T               2         vind (axial) at blade 1, node 6, m/s
         12    1.285845160484E+000                                                     T               2         vind (tangential) at blade 1, node 6, m/s
         13   -3.278197050095E+000                                                     T               2         vind (axial) at blade 1, node 7, m/s
         14    9.965204000473E-001                                                     T               2         vind (tangential) at blade 1, node 7, m/s
         15   -3.251338720322E+000                                                     T               2         vind (axial) at blade 1, node 8, m/s
         16    8.319495916367E-001                                                     T               2         vind (tangential) at blade 1, node 8, m/s
         17   -3.576938152313E+000                                                     T               2         vind (axial) at blade 1, node 9, m/s
         18    7.585994601250E-001                                                     T               2         vind (tangential) at blade 1, node 9, m/s
         19   -3.681093692780E+000                                                     T               2         vind (axial) at blade 1, node 10, m/s
         20    6.730211973190E-001                                                     T               2         vind (tangential) at blade 1, node 10, m/s
         21   -4.051934719086E+000                                                     T               2         vind (axial) at blade 1, node 11, m/s
         22    6.237347126007E-001                                                     T               2         vind (tangential) at blade 1, node 11, m/s
         23   -4.345376014709E+000                                                     T               2         vind (axial) at blade 1, node 12, m/s
         24    5.693156123161E-001                                                     T               2         vind (tangential) at blade 1, node 12, m/s
         25   -4.184375762939E+000                                                     T               2         vind (axial) at blade 1, node 13, m/s
         26    4.933826923370E-001                                                     T               2         vind (tangential) at blade 1, node 13, m/s
         27   -4.375617504120E+000                                                     T               2         vind (axial) at blade 1, node 14, m/s
         28    4.461467266083E-001                                                     T               2         vind (tangential) at blade 1, node 14, m/s
         29   -4.698924064636E+000                                                     T               2         vind (axial) at blade 1, node 15, m/s
         30    4.042615294456E-001                                                     T               2         vind (tangential) at blade 1, node 15, m/s
         31   -4.927521705627E+000                                                     T               2         vind (axial) at blade 1, node 16, m/s
         32    3.844514787197E-001                                                     T               2         vind (tangential) at blade 1, node 16, m/s
         33   -5.090590476990E+000                                                     T               2         vind (axial) at blade 1, node 17, m/s
         34    3.751426935196E-001                                                     T               2         vind (tangential) at blade 1, node 17, m/s
         35   -4.942660808563E+000                                                     T               2         vind (axial) at blade 1, node 18, m/s
         36    3.315065801144E-001                                                     T               2         vind (tangential) at blade 1, node 18, m/s
         37   -1.030462360382E+001                                                     T               2         vind (axial) at blade 1, node 19, m/s
         38    0.000000000000E+000                                                     T               2         vind (tangential) at blade 1, node 19, m/s
         39   -1.244982337952E+001                                                     T               2         vind (axial) at blade 2, node 1, m/s
         40    0.000000000000E+000                                                     T               2         vind (tangential) at blade 2, node 1, m/s
         41    0.000000000000E+000                                                     T               2         vind (axial) at blade 2, node 2, m/s
         42    0.000000000000E+000                                                     T               2         vind (tangential) at blade 2, node 2, m/s
         43    0.000000000000E+000                                                     T               2         vind (axial) at blade 2, node 3, m/s
         44    0.000000000000E+000                                                     T               2         vind (tangential) at blade 2, node 3, m/s
         45    0.000000000000E+000                                                     T               2         vind (axial) at blade 2, node 4, m/s
         46    0.000000000000E+000                                                     T               2         vind (tangential) at blade 2, node 4, m/s
         47   -3.324608802795E+000                                                     T               2         vind (axial) at blade 2, node 5, m/s
         48    1.472676396370E+000                                                     T               2         vind (tangential) at blade 2, node 5, m/s
         49   -3.405009269714E+000                                                     T               2         vind (axial) at blade 2, node 6, m/s
         50    1.150897502899E+000                                                     T               2         vind (tangential) at blade 2, node 6, m/s
         51   -3.082647562027E+000                                                     T               2         vind (axial) at blade 2, node 7, m/s
         52    8.688457012177E-001                                                     T               2         vind (tangential) at blade 2, node 7, m/s
         53   -3.039115905762E+000                                                     T               2         vind (axial) at blade 2, node 8, m/s
         54    7.134883999825E-001                                                     T               2         vind (tangential) at blade 2, node 8, m/s
         55   -3.415175199509E+000                                                     T               2         vind (axial) at blade 2, node 9, m/s
         56    6.505979895592E-001                                                     T               2         vind (tangential) at blade 2, node 9, m/s
         57   -3.519659996033E+000                                                     T               2         vind (axial) at blade 2, node 10, m/s
         58    5.697287321091E-001                                                     T               2         vind (tangential) at blade 2, node 10, m/s
         59   -4.018965244293E+000                                                     T               2         vind (axial) at blade 2, node 11, m/s
         60    5.295311808586E-001                                                     T               2         vind (tangential) at blade 2, node 11, m/s
         61   -4.387877464294E+000                                                     T               2         vind (axial) at blade 2, node 12, m/s
         62    4.800781011581E-001                                                     T               2         vind (tangential) at blade 2, node 12, m/s
         63   -4.206042289734E+000                                                     T               2         vind (axial) at blade 2, node 13, m/s
         64    4.122398793697E-001                                                     T               2         vind (tangential) at blade 2, node 13, m/s
         65   -4.458611965179E+000                                                     T               2         vind (axial) at blade 2, node 14, m/s
         66    3.698019087315E-001                                                     T               2         vind (tangential) at blade 2, node 14, m/s
         67   -4.700480937958E+000                                                     T               2         vind (axial) at blade 2, node 15, m/s
         68    3.352401554585E-001                                                     T               2         vind (tangential) at blade 2, node 15, m/s
         69   -4.760030269623E+000                                                     T               2         vind (axial) at blade 2, node 16, m/s
         70    3.080403208733E-001                                                     T               2         vind (tangential) at blade 2, node 16, m/s
         71   -4.757330417633E+000                                                     T               2         vind (axial) at blade 2, node 17, m/s
         72    2.729710340500E-001                                                     T               2         vind (tangential) at blade 2, node 17, m/s
         73   -4.379681587219E+000                                                     T               2         vind (axial) at blade 2, node 18, m/s
         74    2.541603446007E-001                                                     T               2         vind (tangential) at blade 2, node 18, m/s
         75   -8.660182952881E+000                                                     T               2         vind (axial) at blade 2, node 19, m/s
         76    0.000000000000E+000                                                     T               2         vind (tangential) at blade 2, node 19, m/s
         77   -1.268074893951E+001                                                     T               2         vind (axial) at blade 3, node 1, m/s
         78    0.000000000000E+000                                                     T               2         vind (tangential) at blade 3, node 1, m/s
         79    0.000000000000E+000                                                     T               2         vind (axial) at blade 3, node 2, m/s
         80    0.000000000000E+000                                                     T               2         vind (tangential) at blade 3, node 2, m/s
         81    0.000000000000E+000                                                     T               2         vind (axial) at blade 3, node 3, m/s
         82    0.000000000000E+000                                                     T               2         vind (tangential) at blade 3, node 3, m/s
         83    0.000000000000E+000                                                     T               2         vind (axial) at blade 3, node 4, m/s
         84    0.000000000000E+000                                                     T               2         vind (tangential) at blade 3, node 4, m/s
         85   -3.001847743988E+000                                                     T               2         vind (axial) at blade 3, node 5, m/s
         86    1.546175599098E+000                                                     T               2         vind (tangential) at blade 3, node 5, m/s
         87   -3.421363353729E+000                                                     T               2         vind (axial) at blade 3, node 6, m/s
         88    1.260844469070E+000                                                     T               2         vind (tangential) at blade 3, node 6, m/s
         89   -3.146239042282E+000                                                     T               2         vind (axial) at blade 3, node 7, m/s
         90    9.482952952385E-001                                                     T               2         vind (tangential) at blade 3, node 7, m/s
         91   -3.096117258072E+000                                                     T               2         vind (axial) at blade 3, node 8, m/s
         92    7.715258598328E-001                                                     T               2         vind (tangential) at blade 3, node 8, m/s
         93   -3.431659698486E+000                                                     T               2         vind (axial) at blade 3, node 9, m/s
         94    6.944381594658E-001                                                     T               2         vind (tangential) at blade 3, node 9, m/s
         95   -3.528809309006E+000                                                     T               2         vind (axial) at blade 3, node 10, m/s
         96    6.055877804756E-001                                                     T               2         vind (tangential) at blade 3, node 10, m/s
         97   -3.979555845261E+000                                                     T               2         vind (axial) at blade 3, node 11, m/s
         98    5.600646138191E-001                                                     T               2         vind (tangential) at blade 3, node 11, m/s
         99   -4.331608295441E+000                                                     T               2         vind (axial) at blade 3, node 12, m/s
        100    5.071221590042E-001                                                     T               2         vind (tangential) at blade 3, node 12, m/s
        101   -4.155364990234E+000                                                     T               2         vind (axial) at blade 3, node 13, m/s
        102    4.346355199814E-001                                                     T               2         vind (tangential) at blade 3, node 13, m/s
        103   -4.395193576813E+000                                                     T               2         vind (axial) at blade 3, node 14, m/s
        104    3.910766243935E-001                                                     T               2         vind (tangential) at blade 3, node 14, m/s
        105   -4.751861095428E+000                                                     T               2         vind (axial) at blade 3, node 15, m/s
        106    3.523426353931E-001                                                     T               2         vind (tangential) at blade 3, node 15, m/s
        107   -4.972903728485E+000                                                     T               2         vind (axial) at blade 3, node 16, m/s
        108    3.317503631115E-001                                                     T               2         vind (tangential) at blade 3, node 16, m/s
        109   -5.073670864105E+000                                                     T               2         vind (axial) at blade 3, node 17, m/s
        110    3.057830929756E-001                                                     T               2         vind (tangential) at blade 3, node 17, m/s
        111   -4.796589374542E+000                                                     T               2         vind (axial) at blade 3, node 18, m/s
        112    2.779333591461E-001                                                     T               2         vind (tangential) at blade 3, node 18, m/s
        113   -9.325294494629E+000                                                     T               2         vind (axial) at blade 3, node 19, m/s
        114    0.000000000000E+000                                                     T               2         vind (tangential) at blade 3, node 19, m/s
        115   -5.158709049225E+000                                                     T               2         First time derivative of vind (axial) at blade 1, node 1, m/s/s
        116    0.000000000000E+000                                                     T               2         First time derivative of vind (tangential) at blade 1, node 1, m/s/s
        117    0.000000000000E+000                                                     T               2         First time derivative of vind (axial) at blade 1, node 2, m/s/s
        118    0.000000000000E+000                                                     T               2         First time derivative of vind (tangential) at blade 1, node 2, m/s/s
        119    0.000000000000E+000                                                     T               2         First time derivative of vind (axial) at blade 1, node 3, m/s/s
        120    0.000000000000E+000                                                     T               2         First time derivative of vind (tangential) at blade 1, node 3, m/s/s
        121    0.000000000000E+000                                                     T               2         First time derivative of vind (axial) at blade 1, node 4, m/s/s
        122    0.000000000000E+000                                                     T               2         First time derivative of vind (tangential) at blade 1, node 4, m/s/s
        123   -1.277958631516E+000                                                     T               2         First time derivative of vind (axial) at blade 1, node 5, m/s/s
        124    6.298647522926E-001                                                     T               2         First time derivative of vind (tangential) at blade 1, node 5, m/s/s
        125   -1.424056172371E+000                                                     T               2         First time derivative of vind (axial) at blade 1, node 6, m/s/s
        126    5.232679843903E-001                                                     T               2         First time derivative of vind (tangential) at blade 1, node 6, m/s/s
        127   -1.324278473854E+000                                                     T               2         First time derivative of vind (axial) at blade 1, node 7, m/s/s
        128    4.073102176189E-001                                                     T               2         First time derivative of vind (tangential) at blade 1, node 7, m/s/s
        129   -1.315292954445E+000                                                     T               2         First time derivative of vind (axial) at blade 1, node 8, m/s/s
        130    3.414586782455E-001                                                     T               2         First time derivative of vind (tangential) at blade 1, node 8, m/s/s
        131   -1.442602753639E+000                                                     T               2         First time derivative of vind (axial) at blade 1, node 9, m/s/s
        132    3.123262226582E-001                                                     T               2         First time derivative of vind (tangential) at blade 1, node 9, m/s/s
        133   -1.485845923424E+000                                                     T               2         First time derivative of vind (axial) at blade 1, node 10, m/s/s
        134    2.791459858418E-001                                                     T               2         First time derivative of vind (tangential) at blade 1, node 10, m/s/s
        135   -1.622495412827E+000                                                     T               2         First time derivative of vind (axial) at blade 1, node 11, m/s/s
        136    2.605422139168E-001                                                     T               2         First time derivative of vind (tangential) at blade 1, node 11, m/s/s
        137   -1.727555990219E+000                                                     T               2         First time derivative of vind (axial) at blade 1, node 12, m/s/s
        138    2.410085052252E-001                                                     T               2         First time derivative of vind (tangential) at blade 1, node 12, m/s/s
        139   -1.659340143204E+000                                                     T               2         First time derivative of vind (axial) at blade 1, node 13, m/s/s
        140    2.127079516649E-001                                                     T               2         First time derivative of vind (tangential) at blade 1, node 13, m/s/s
        141   -1.719341635704E+000                                                     T               2         First time derivative of vind (axial) at blade 1, node 14, m/s/s
        142    1.969272792339E-001                                                     T               2         First time derivative of vind (tangential) at blade 1, node 14, m/s/s
        143   -1.821035385132E+000                                                     T               2         First time derivative of vind (axial) at blade 1, node 15, m/s/s
        144    1.845194846392E-001                                                     T               2         First time derivative of vind (tangential) at blade 1, node 15, m/s/s
        145   -1.934396505356E+000                                                     T               2         First time derivative of vind (axial) at blade 1, node 16, m/s/s
        146    1.806536912918E-001                                                     T               2         First time derivative of vind (tangential) at blade 1, node 16, m/s/s
        147   -2.078755140305E+000                                                     T               2         First time derivative of vind (axial) at blade 1, node 17, m/s/s
        148    1.811852306128E-001                                                     T               2         First time derivative of vind (tangential) at blade 1, node 17, m/s/s
        149   -2.156164646149E+000                                                     T               2         First time derivative of vind (axial) at blade 1, node 18, m/s/s
        150    1.725312471390E-001                                                     T               2         First time derivative of vind (tangential) at blade 1, node 18, m/s/s
        151   -5.007646083832E+000                                                     T               2         First time derivative of vind (axial) at blade 1, node 19, m/s/s
        152    0.000000000000E+000                                                     T               2         First time derivative of vind (tangential) at blade 1, node 19, m/s/s
        153   -5.024455070496E+000                                                     T               2         First time derivative of vind (axial) at blade 2, node 1, m/s/s
        154    0.000000000000E+000                                                     T               2         First time derivative of vind (tangential) at blade 2, node 1, m/s/s
        155    0.000000000000E+000                                                     T               2         First time derivative of vind (axial) at blade 2, node 2, m/s/s
        156    0.000000000000E+000                                                     T               2         First time derivative of vind (tangential) at blade 2, node 2, m/s/s
        157    0.000000000000E+000                                                     T               2         First time derivative of vind (axial) at blade 2, node 3, m/s/s
        158    0.000000000000E+000                                                     T               2         First time derivative of vind (tangential) at blade 2, node 3, m/s/s
        159    0.000000000000E+000                                                     T               2         First time derivative of vind (axial) at blade 2, node 4, m/s/s
        160    0.000000000000E+000                                                     T               2         First time derivative of vind (tangential) at blade 2, node 4, m/s/s
        161   -1.337402105331E+000                                                     T               2         First time derivative of vind (axial) at blade 2, node 5, m/s/s
        162    5.962112545967E-001                                                     T               2         First time derivative of vind (tangential) at blade 2, node 5, m/s/s
        163   -1.374873518944E+000                                                     T               2         First time derivative of vind (axial) at blade 2, node 6, m/s/s
        164    4.674208164215E-001                                                     T               2         First time derivative of vind (tangential) at blade 2, node 6, m/s/s
        165   -1.246343374252E+000                                                     T               2         First time derivative of vind (axial) at blade 2, node 7, m/s/s
        166    3.536910116673E-001                                                     T               2         First time derivative of vind (tangential) at blade 2, node 7, m/s/s
        167   -1.229611396790E+000                                                     T               2         First time derivative of vind (axial) at blade 2, node 8, m/s/s
        168    2.912174761295E-001                                                     T               2         First time derivative of vind (tangential) at blade 2, node 8, m/s/s
        169   -1.380254149437E+000                                                     T               2         First time derivative of vind (axial) at blade 2, node 9, m/s/s
        170    2.662747800350E-001                                                     T               2         First time derivative of vind (tangential) at blade 2, node 9, m/s/s
        171   -1.423515081406E+000                                                     T               2         First time derivative of vind (axial) at blade 2, node 10, m/s/s
        172    2.344654351473E-001                                                     T               2         First time derivative of vind (tangential) at blade 2, node 10, m/s/s
        173   -1.619368910789E+000                                                     T               2         First time derivative of vind (axial) at blade 2, node 11, m/s/s
        174    2.194522172213E-001                                                     T               2         First time derivative of vind (tangential) at blade 2, node 11, m/s/s
        175   -1.763012766838E+000                                                     T               2         First time derivative of vind (axial) at blade 2, node 12, m/s/s
        176    2.011871933937E-001                                                     T               2         First time derivative of vind (tangential) at blade 2, node 12, m/s/s
        177   -1.684252381325E+000                                                     T               2         First time derivative of vind (axial) at blade 2, node 13, m/s/s