
Linearized model: Predictions were generated on 03-Jul-2025 at 08:56:56 using OpenFAST, compiled on Jun 19 2025 at 03:54:01 as a 64-bit application using single precision at commit v4.1.0
 linked with  NWTC Subroutine Library; ElastoDyn; InflowWind; AeroDyn; ServoDyn

Description from the FAST input file: NREL 5.0 MW Baseline Wind Turbine (Onshore), Linearization with AeroDyn + ED

Simulation information:
   Simulation time:                     1.0000 s
   Rotor Speed:                         1.6238 rad/s
   Azimuth:                             1.5899 rad
   Wind Speed:                         13.0000 m/s
   Number of continuous states:       260
   Number of discrete states:           0
   Number of constraint states:         0
   Number of inputs:                   69
   Number of outputs:                  39
   Jacobians included in this file?    No

Order of continuous states:
   Row/Column Operating Point                                                   Rotating Frame? Derivative Order Description
   ---------- ---------------                                                   --------------- ---------------- -----------
          1    5.140104889870E-001                                                     F               2         ED 1st tower fore-aft bending mode DOF (internal DOF index = DOF_TFA1), m
          2    2.535743638873E-003                                                     F               2         ED 1st tower side-to-side bending mode DOF (internal DOF index = DOF_TSS1), m
          3    1.177837111754E-004                                                     F               2         ED 2nd tower fore-aft bending mode DOF (internal DOF index = DOF_TFA2), m
          4    3.431314326008E-005                                                     F               2         ED 2nd tower side-to-side bending mode DOF (internal DOF index = DOF_TSS2), m
          5    1.694079255685E-004                                                     F               2         ED Nacelle yaw DOF (internal DOF index = DOF_Yaw), rad
          6    1.880257390440E-002                                                     F               2         ED Variable speed generator DOF (internal DOF index = DOF_GeAz), rad
          7    3.369343176018E-004                                                     F               2         ED Drivetrain rotational-flexibility DOF (internal DOF index = DOF_DrTr), rad
          8    7.168788909912E+000                                                     T               2         ED 1st flapwise bending-mode DOF of blade 1 (internal DOF index = DOF_BF(1,1)), m
          9    6.206042766571E+000                                                     T               2         ED 1st flapwise bending-mode DOF of blade 2 (internal DOF index = DOF_BF(2,1)), m
         10    6.669111728668E+000                                                     T               2         ED 1st flapwise bending-mode DOF of blade 3 (internal DOF index = DOF_BF(3,1)), m
         11   -1.088112965226E-002                                                     T               2         ED 1st edgewise bending-mode DOF of blade 1 (internal DOF index = DOF_BE(1,1)), m
         12    8.845666050911E-001                                                     T               2         ED 1st edgewise bending-mode DOF of blade 2 (internal DOF index = DOF_BE(2,1)), m
         13    2.203558683395E-001                                                     T               2         ED 1st edgewise bending-mode DOF of blade 3 (internal DOF index = DOF_BE(3,1)), m
         14    3.352340310812E-003                                                     T               2         ED 2nd flapwise bending-mode DOF of blade 1 (internal DOF index = DOF_BF(1,2)), m
         15    1.242026463151E-001                                                     T               2         ED 2nd flapwise bending-mode DOF of blade 2 (internal DOF index = DOF_BF(2,2)), m
         16    9.121388942003E-002                                                     T               2         ED 2nd flapwise bending-mode DOF of blade 3 (internal DOF index = DOF_BF(3,2)), m
         17    1.019928932190E+000                                                     F               2         ED First time derivative of 1st tower fore-aft bending mode DOF (internal DOF index = DOF_TFA1), m/s
         18    3.438234701753E-002                                                     F               2         ED First time derivative of 1st tower side-to-side bending mode DOF (internal DOF index = DOF_TSS1), m/s
         19    1.325409277342E-003                                                     F               2         ED First time derivative of 2nd tower fore-aft bending mode DOF (internal DOF index = DOF_TFA2), m/s
         20    2.096016942232E-006                                                     F               2         ED First time derivative of 2nd tower side-to-side bending mode DOF (internal DOF index = DOF_TSS2), m/s
         21   -4.148609878030E-004                                                     F               2         ED First time derivative of Nacelle yaw DOF (internal DOF index = DOF_Yaw), rad/s
         22    1.619504332542E+000                                                     F               2         ED First time derivative of Variable speed generator DOF (internal DOF index = DOF_GeAz), rad/s
         23    4.250315017998E-003                                                     F               2         ED First time derivative of Drivetrain rotational-flexibility DOF (internal DOF index = DOF_DrTr), rad/s
         24   -4.876610636711E-001                                                     T               2         ED First time derivative of 1st flapwise bending-mode DOF of blade 1 (internal DOF index = DOF_BF(1,1)), m/s
         25    3.601018711925E-002                                                     T               2         ED First time derivative of 1st flapwise bending-mode DOF of blade 2 (internal DOF index = DOF_BF(2,1)), m/s
         26   -9.582970738411E-001                                                     T               2         ED First time derivative of 1st flapwise bending-mode DOF of blade 3 (internal DOF index = DOF_BF(3,1)), m/s
         27    3.576193451881E-001                                                     T               2         ED First time derivative of 1st edgewise bending-mode DOF of blade 1 (internal DOF index = DOF_BE(1,1)), m/s
         28   -1.555590152740E+000                                                     T               2         ED First time derivative of 1st edgewise bending-mode DOF of blade 2 (internal DOF index = DOF_BE(2,1)), m/s
         29   -5.959872622043E-003                                                     T               2         ED First time derivative of 1st edgewise bending-mode DOF of blade 3 (internal DOF index = DOF_BE(3,1)), m/s
         30   -2.033825665712E-001                                                     T               2         ED First time derivative of 2nd flapwise bending-mode DOF of blade 1 (internal DOF index = DOF_BF(1,2)), m/s
         31   -6.211216449738E-001                                                     T               2         ED First time derivative of 2nd flapwise bending-mode DOF of blade 2 (internal DOF index = DOF_BF(2,2)), m/s
         32   -2.416840940714E-001                                                     T               2         ED First time derivative of 2nd flapwise bending-mode DOF of blade 3 (internal DOF index = DOF_BF(3,2)), m/s
         33   -1.283662605286E+001                                                     T               2         AD vind (axial) at blade 1, node 1, m/s
         34    0.000000000000E+000                                                     T               2         AD vind (tangential) at blade 1, node 1, m/s
         35    0.000000000000E+000                                                     T               2         AD vind (axial) at blade 1, node 2, m/s
         36    0.000000000000E+000                                                     T               2         AD vind (tangential) at blade 1, node 2, m/s
         37    0.000000000000E+000                                                     T               2         AD vind (axial) at blade 1, node 3, m/s
         38    0.000000000000E+000                                                     T               2         AD vind (tangential) at blade 1, node 3, m/s
         39    0.000000000000E+000                                                     T               2         AD vind (axial) at blade 1, node 4, m/s
         40    0.000000000000E+000                                                     T               2         AD vind (tangential) at blade 1, node 4, m/s
         41   -3.208302736282E+000                                                     T               2         AD vind (axial) at blade 1, node 5, m/s
         42    1.559409379959E+000                                                     T               2         AD vind (tangential) at blade 1, node 5, m/s
         43   -3.537548542023E+000                                                     T               2         AD vind (axial) at blade 1, node 6, m/s
         44    1.285845160484E+000                                                     T               2         AD vind (tangential) at blade 1, node 6, m/s
         45   -3.278197050095E+000                                                     T               2         AD vind (axial) at blade 1, node 7, m/s
         46    9.965204000473E-001                                                     T               2         AD vind (tangential) at blade 1, node 7, m/s
         47   -3.251338720322E+000                                                     T               2         AD vind (axial) at blade 1, node 8, m/s
         48    8.319495916367E-001                                                     T               2         AD vind (tangential) at blade 1, node 8, m/s
         49   -3.576938152313E+000                                                     T               2         AD vind (axial) at blade 1, node 9, m/s
         50    7.585994601250E-001                                                     T               2         AD vind (tangential) at blade 1, node 9, m/s
         51   -3.681093692780E+000                                                     T               2         AD vind (axial) at blade 1, node 10, m/s
         52    6.730211973190E-001                                                     T               2         AD vind (tangential) at blade 1, node 10, m/s
         53   -4.051934719086E+000                                                     T               2         AD vind (axial) at blade 1, node 11, m/s
         54    6.237347126007E-001                                                     T               2         AD vind (tangential) at blade 1, node 11, m/s
         55   -4.345376014709E+000                                                     T               2         AD vind (axial) at blade 1, node 12, m/s
         56    5.693156123161E-001                                                     T               2         AD vind (tangential) at blade 1, node 12, m/s
         57   -4.184375762939E+000                                                     T               2         AD vind (axial) at blade 1, node 13, m/s
         58    4.933826923370E-001                                                     T               2         AD vind (tangential) at blade 1, node 13, m/s
         59   -4.375617504120E+000                                                     T               2         AD vind (axial) at blade 1, node 14, m/s
         60    4.461467266083E-001                                                     T               2         AD vind (tangential) at blade 1, node 14, m/s
         61   -4.698924064636E+000                                                     T               2         AD vind (axial) at blade 1, node 15, m/s
         62    4.042615294456E-001                                                     T               2         AD vind (tangential) at blade 1, node 15, m/s
         63   -4.927521705627E+000                                                     T               2         AD vind (axial) at blade 1, node 16, m/s
         64    3.844514787197E-001                                                     T               2         AD vind (tangential) at blade 1, node 16, m/s
         65   -5.090590476990E+000                                                     T               2         AD vind (axial) at blade 1, node 17, m/s
         66    3.751426935196E-001                                                     T               2         AD vind (tangential) at blade 1, node 17, m/s
         67   -4.942660808563E+000                                                     T               2         AD vind (axial) at blade 1, node 18, m/s
         68    3.315065801144E-001                                                     T               2         AD vind (tangential) at blade 1, node 18, m/s
         69   -1.030462360382E+001                                                     T               2         AD vind (axial) at blade 1, node 19, m/s
         70    0.000000000000E+000                                                     T               2         AD vind (tangential) at blade 1, node 19, m/s
         71   -1.244982337952E+001                                                     T               2         AD vind (axial) at blade 2, node 1, m/s
         72    0.000000000000E+000                                                     T               2         AD vind (tangential) at blade 2, node 1, m/s
         73    0.000000000000E+000                                                     T               2         AD vind (axial) at blade 2, node 2, m/s
         74    0.000000000000E+000                                                     T               2         AD vind (tangential) at blade 2, node 2, m/s
         75    0.000000000000E+000                                                     T               2         AD vind (axial) at blade 2, node 3, m/s
         76    0.000000000000E+000                                                     T               2         AD vind (tangential) at blade 2, node 3, m/s
         77    0.000000000000E+000                                                     T               2         AD vind (axial) at blade 2, node 4, m/s
         78    0.000000000000E+000                                                     T               2         AD vind (tangential) at blade 2, node 4, m/s
         79   -3.324608802795E+000                                                     T               2         AD vind (axial) at blade 2, node 5, m/s
         80    1.472676396370E+000                                                     T               2         AD vind (tangential) at blade 2, node 5, m/s
         81   -3.405009269714E+000                                                     T               2         AD vind (axial) at blade 2, node 6, m/s
         82    1.150897502899E+000                                                     T               2         AD vind (tangential) at blade 2, node 6, m/s
         83   -3.082647562027E+000                                                     T               2         AD vind (axial) at blade 2, node 7, m/s
         84    8.688457012177E-001                                                     T               2         AD vind (tangential) at blade 2, node 7, m/s
         85   -3.039115905762E+000                                                     T               2         AD vind (axial) at blade 2, node 8, m/s
         86    7.134883999825E-001                                                     T               2         AD vind (tangential) at blade 2, node 8, m/s
         87   -3.415175199509E+000                                                     T               2         AD vind (axial) at blade 2, node 9, m/s
         88    6.505979895592E-001                                                     T               2         AD vind (tangential) at blade 2, node 9, m/s
         89   -3.519659996033E+000                                                     T               2         AD vind (axial) at blade 2, node 10, m/s
         90    5.697287321091E-001                                                     T               2         AD vind (tangential) at blade 2, node 10, m/s
         91   -4.018965244293E+000                                                     T               2         AD vind (axial) at blade 2, node 11, m/s
         92    5.295311808586E-001                                                     T               2         AD vind (tangential) at blade 2, node 11, m/s
         93   -4.387877464294E+000                                                     T               2         AD vind (axial) at blade 2, node 12, m/s
         94    4.800781011581E-001                                                     T               2         AD vind (tangential) at blade 2, node 12, m/s
         95   -4.206042289734E+000                                                     T               2         AD vind (axial) at blade 2, node 13, m/s
         96    4.122398793697E-001                                                     T               2         AD vind (tangential) at blade 2, node 13, m/s
         97   -4.458611965179E+000                                                     T               2         AD vind (axial) at blade 2, node 14, m/s
         98    3.698019087315E-001                                                     T               2         AD vind (tangential) at blade 2, node 14, m/s
         99   -4.700480937958E+000                                                     T               2         AD vind (axial) at blade 2, node 15, m/s
        100    3.352401554585E-001                                                     T               2         AD vind (tangential) at blade 2, node 15, m/s
        101   -4.760030269623E+000                                                     T               2         AD vind (axial) at blade 2, node 16, m/s
        102    3.080403208733E-001                                                     T               2         AD vind (tangential) at blade 2, node 16, m/s
        103   -4.757330417633E+000                                                     T               2         AD vind (axial) at blade 2, node 17, m/s
        104    2.729710340500E-001                                                     T               2         AD vind (tangential) at blade 2, node 17, m/s
        105   -4.379681587219E+000                                                     T               2         AD vind (axial) at blade 2, node 18, m/s
        106    2.541603446007E-001                                                     T               2         AD vind (tangential) at blade 2, node 18, m/s
        107   -8.660182952881E+000                                                     T               2         AD vind (axial) at blade 2, node 19, m/s
        108    0.000000000000E+000                                                     T               2         AD vind (tangential) at blade 2, node 19, m/s
        109   -1.268074893951E+001                                                     T               2         AD vind (axial) at blade 3, node 1, m/s
        110    0.000000000000E+000                                                     T               2         AD vind (tangential) at blade 3, node 1, m/s
        111    0.000000000000E+000                                                     T               2         AD vind (axial) at blade 3, node 2, m/s
        112    0.000000000000E+000                                                     T               2         AD vind (tangential) at blade 3, node 2, m/s
        113    0.000000000000E+000                                                     T               2         AD vind (axial) at blade 3, node 3, m/s
        114    0.000000000000E+000                                                     T               2         AD vind (tangential) at blade 3, node 3, m/s
        115    0.000000000000E+000                                                     T               2         AD vind (axial) at blade 3, node 4, m/s
        116    0.000000000000E+000                                                     T               2         AD vind (tangential) at blade 3, node 4, m/s
        117   -3.001847743988E+000                                                     T               2         AD vind (axial) at blade 3, node 5, m/s
        118    1.546175599098E+000                                                     T               2         AD vind (tangential) at blade 3, node 5, m/s
        119   -3.421363353729E+000                                                     T               2         AD vind (axial) at blade 3, node 6, m/s
        120    1.260844469070E+000                                                     T               2         AD vind (tangential) at blade 3, node 6, m/s
        121   -3.146239042282E+000                                                     T               2         AD vind (axial) at blade 3, node 7, m/s
        122    9.482952952385E-001                                                     T               2         AD vind (tangential) at blade 3, node 7, m/s
        123   -3.096117258072E+000                                                     T               2         AD vind (axial) at blade 3, node 8, m/s
        124    7.715258598328E-001                                                     T               2         AD vind (tangential) at blade 3, node 8, m/s
        125   -3.431659698486E+000                                                     T               2         AD vind (axial) at blade 3, node 9, m/s
        126    6.944381594658E-001                                                     T               2         AD vind (tangential) at blade 3, node 9, m/s
        127   -3.528809309006E+000                                                     T               2         AD vind (axial) at blade 3, node 10, m/s
        128    6.055877804756E-001                                                     T               2         AD vind (tangential) at blade 3, node 10, m/s
        129   -3.979555845261E+000                                                     T               2         AD vind (axial) at blade 3, node 11, m/s
        130    5.600646138191E-001                                                     T               2         AD vind (tangential) at blade 3, node 11, m/s
        131   -4.331608295441E+000                                                     T               2         AD vind (axial) at blade 3, node 12, m/s
        132    5.071221590042E-001                                                     T               2         AD vind (tangential) at blade 3, node 12, m/s
        133   -4.155364990234E+000                                                     T               2         AD vind (axial) at blade 3, node 13, m/s
        134    4.346355199814E-001                                                     T               2         AD vind (tangential) at blade 3, node 13, m/s
        135   -4.395193576813E+000                                                     T               2         AD vind (axial) at blade 3, node 14, m/s
        136    3.910766243935E-001                                                     T               2         AD vind (tangential) at blade 3, node 14, m/s
        137   -4.751861095428E+000                                                     T               2         AD vind (axial) at blade 3, node 15, m/s
        138    3.523426353931E-001                                                     T               2         AD vind (tangential) at blade 3, node 15, m/s
        139   -4.972903728485E+000                                                     T               2         AD vind (axial) at blade 3, node 16, m/s
        140    3.317503631115E-001                                                     T               2         AD vind (tangential) at blade 3, node 16, m/s
        141   -5.073670864105E+000                                                     T               2         AD vind (axial) at blade 3, node 17, m/s
        142    3.057830929756E-001                                                     T               2         AD vind (tangential) at blade 3, node 17, m/s
        143   -4.796589374542E+000                                                     T               2         AD vind (axial) at blade 3, node 18, m/s
        144    2.779333591461E-001                                                     T               2         AD vind (tangential) at blade 3, node 18, m/s
        145   -9.325294494629E+000                                                     T               2         AD vind (axial) at blade 3, node 19, m/s
        146    0.000000000000E+000                                                     T               2         AD vind (tangential) at blade 3, node 19, m/s
        147   -5.158709049225E+000                                                     T               2         AD First time derivative of vind (axial) at blade 1, node 1, m/s/s
        148    0.000000000000E+000                                                     T               2         AD First time derivative of vind (tangential) at blade 1, node 1, m/s/s
        149    0.000000000000E+000                                                     T               2         AD First time derivative of vind (axial) at blade 1, node 2, m/s/s
        150    0.000000000000E+000                                                     T               2         AD First time derivative of vind (tangential) at blade 1, node 2, m/s/s
        151    0.000000000000E+000                                                     T               2         AD First time derivative of vind (axial) at blade 1, node 3, m/s/s
        152    0.000000000000E+000                                                     T               2         AD First time derivative of vind (tangential) at blade 1, node 3, m/s/s
        153    0.000000000000E+000                                                     T               2         AD First time derivative of vind (axial) at blade 1, node 4, m/s/s
        154    0.000000000000E+000                                                     T               2         AD First time derivative of vind (tangential) at blade 1, node 4, m/s/s
        155   -1.277958631516E+000                                                     T               2         AD First time derivative of vind (axial) at blade 1, node 5, m/s/s
        156    6.298647522926E-001                                                     T               2         AD First time derivative of vind (tangential) at blade 1, node 5, m/s/s
        157   -1.424056172371E+000                                                     T               2         AD First time derivative of vind (axial) at blade 1, node 6, m/s/s
        158    5.232679843903E-001                                                     T               2         AD First time derivative of vind (tangential) at blade 1, node 6, m/s/s
        159   -1.324278473854E+000                                                     T               2         AD First time derivative of vind (axial) at blade 1, node 7, m/s/s
        160    4.073102176189E-001                                                     T               2         AD First time derivative of vind (tangential) at blade 1, node 7, m/s/s
        161   -1.315292954445E+000                                                     T               2         AD First time derivative of vind (axial) at blade 1, node 8, m/s/s
        162    3.414586782455E-001                                                     T               2         AD First time derivative of vind (tangential) at blade 1, node 8, m/s/s
        163   -1.442602753639E+000                                                     T               2         AD First time derivative of vind (axial) at blade 1, node 9, m/s/s
        164    3.123262226582E-001                                                     T               2         AD First time derivative of vind (tangential) at blade 1, node 9, m/s/s
        165   -1.485845923424E+000                                                     T               2         AD First time derivative of vind (axial) at blade 1, node 10, m/s/s
        166    2.791459858418E-001                                                     T               2         AD First time derivative of vind (tangential) at blade 1, node 10, m/s/s
        167   -1.622495412827E+000                                                     T               2         AD First time derivative of vind (axial) at blade 1, node 11, m/s/s
        168    2.605422139168E-001                                                     T               2         AD First time derivative of vind (tangential) at blade 1, node 11, m/s/s
        169   -1.727555990219E+000                                                     T               2         AD First time derivative of vind (axial) at blade 1, node 12, m/s/s
        170    2.410085052252E-001                                                     T               2         AD First time derivative of vind (tangential) at blade 1, node 12, m/s/s