
FAST Summary File

Predictions were generated on 03-Jul-2025 at 02:48:22 using OpenFAST, compiled on Jun 19 2025 at 03:54:01 as a 64-bit application using single precision at commit v4.1.0
  run with
    NWTC Subroutine Library
    ElastoDyn [not called]
    ElastoDyn
    ServoDyn
    SeaState
    HydroDyn
    MoorDyn (v2.3.8, 2025-02-27)
    Simplified-ElastoDyn (unknown version, unknown date) [not called]
    InflowWind (unknown version, unknown date) [not called]
    AeroDyn (unknown version, unknown date) [not called]
    AeroDisk (unknown version, unknown date) [not called]
    ServoDyn
    HydroDyn
    SubDyn (unknown version, unknown date) [not called]
    ExtPtfm_MCKF (unknown version, unknown date) [not called]
    MAP (unknown version, unknown date) [not called]
    FEAMooring (unknown version, unknown date) [not called]
    MoorDyn (v2.3.8, 2025-02-27)
    OrcaFlexInterface (unknown version, unknown date) [not called]
    IceFloe (unknown version, unknown date) [not called]
    IceDyn (unknown version, unknown date) [not called]
Description from the FAST input file: 
  FAST Certification Test #25: NREL 5.0 MW Baseline Wind Turbine with OC4-DeepCwind semi configuration, for use in offshore analysis

Interpolation order for input/output time histories: 2 (quadratic)
Number of correction iterations:  0
Number of rows in Jacobian matrix used for coupling ElastoDyn to HydroDyn:     12


   Requested Time Steps  
  -------------------------------------------------
  Component          Time Step (s)    Subcycles (-)
  -----------------  ---------------  -------------
  FAST (glue code)    1.250000000000E-002
  ElastoDyn           1.250000000000E-       1
  ServoDyn            1.250000000000E-       1
  SeaState            1.250000000000E-       1
  HydroDyn            1.250000000000E-       1
  MoorDyn             1.250000000000E-       1
  FAST output files   5.000000000000E-       4^-1


   Requested Channels in FAST Output File(s)  
  --------------------------------------------
  Number  Name                  Units                 Generated by
  ------  --------------------  --------------------  ------------
       1  Time                  (s)                   OpenFAST
       2  PtfmSurge             (m)                   ElastoDyn
       3  PtfmSway              (m)                   ElastoDyn
       4  PtfmHeave             (m)                   ElastoDyn
       5  PtfmRoll              (deg)                 ElastoDyn
       6  PtfmPitch             (deg)                 ElastoDyn
       7  PtfmYaw               (deg)                 ElastoDyn
       8  YawBrMzp              (kN-m)                ElastoDyn
       9  TTDspFA               (m)                   ElastoDyn
      10  Wave1Elev             (m)                   SeaState
      11  FAIRTEN1              (N)                   MoorDyn
      12  FAIRTEN2              (N)                   MoorDyn
      13  FAIRTEN3              (N)                   MoorDyn
      14  ANCHTEN1              (N)                   MoorDyn
      15  ANCHTEN2              (N)                   MoorDyn
      16  ANCHTEN3              (N)                   MoorDyn
